/*--------------------------------*- C++ -*----------------------------------*\
| =========                 |                                                 |
| \\      /  F ield         | OpenFOAM: The Open Source CFD Toolbox           |
|  \\    /   O peration     | Version:  v1712                                 |
|   \\  /    A nd           | Web:      www.OpenFOAM.com                      |
|    \\/     M anipulation  |                                                 |
\*---------------------------------------------------------------------------*/
FoamFile
{
    version     2.0;
    format      ascii;
    class       volVectorField;
    location    "0.1";
    object      L;
}
// * * * * * * * * * * * * * * * * * * * * * * * * * * * * * * * * * * * * * //

dimensions      [0 1 -2 0 0 0 0];


internalField   nonuniform List<vector> 
200
(
(0.000878649 -0.107416 -0)
(0.00270322 -0.0971373 -0)
(0.00393377 -0.0783637 -0)
(0.00429824 -0.0553173 -0)
(0.00377514 -0.0329885 -0)
(0.00263069 -0.0155787 -0)
(0.00134405 -0.00509342 -0)
(0.000399837 -0.000782391 -0)
(1.89796e-05 3.95068e-05 0)
(9.88016e-06 -1.00898e-05 0)
(0.00381462 -0.217703 -0)
(0.0115118 -0.199244 -0)
(0.016975 -0.165585 -0)
(0.0192008 -0.123592 -0)
(0.0180304 -0.0813258 -0)
(0.0142177 -0.0457578 -0)
(0.00917562 -0.0208465 -0)
(0.00443653 -0.00681617 -0)
(0.00114117 -0.00109243 -0)
(-4.51159e-05 -8.87377e-06 0)
(0.00749096 -0.2523 -0)
(0.0226529 -0.234434 -0)
(0.0342812 -0.201578 -0)
(0.0406816 -0.159474 -0)
(0.0412445 -0.114865 -0)
(0.0364954 -0.0738776 -0)
(0.027851 -0.0407836 -0)
(0.0172537 -0.0175766 -0)
(0.00709794 -0.00453712 -0)
(0.000674564 -0.000338248 -0)
(0.00966206 -0.236403 -0)
(0.0298525 -0.224898 -0)
(0.0472591 -0.203005 -0)
(0.0601857 -0.173196 -0)
(0.0672381 -0.138296 -0)
(0.0672586 -0.101219 -0)
(0.0594532 -0.065069 -0)
(0.0440336 -0.0334528 -0)
(0.0236012 -0.010899 -0)
(0.00495669 -0.00132407 -0)
(0.00892565 -0.176266 -0)
(0.0291041 -0.175926 -0)
(0.0503688 -0.173723 -0)
(0.0722747 -0.167315 -0)
(0.092562 -0.153483 -0)
(0.106691 -0.129612 -0)
(0.108544 -0.0957535 -0)
(0.0928751 -0.0563626 -0)
(0.0594172 -0.021303 -0)
(0.0174638 -0.00323833 -0)
(0.00388656 -0.0660179 -0)
(0.0158912 -0.0815032 -0)
(0.0370341 -0.108234 -0)
(0.0702067 -0.137756 -0)
(0.112795 -0.15858 -0)
(0.155126 -0.15968 -0)
(0.181522 -0.135248 -0)
(0.175233 -0.0890364 -0)
(0.126967 -0.0373421 -0)
(0.0446978 -0.00642261 -0)
(-0.00715437 0.10937 -0)
(-0.0162863 0.073549 -0)
(-0.00291242 0.00747286 -0)
(0.0425781 -0.073306 -0)
(0.118896 -0.146639 -0)
(0.209818 -0.189295 -0)
(0.284547 -0.185312 -0)
(0.305364 -0.134759 -0)
(0.242922 -0.0612591 -0)
(0.0955839 -0.011431 -0)
(-0.0260719 0.371444 -0)
(-0.0764064 0.311757 -0)
(-0.0846564 0.195433 -0)
(-0.0292639 0.0452913 -0)
(0.0935923 -0.103763 -0)
(0.261051 -0.211667 -0)
(0.420592 -0.24587 -0)
(0.499406 -0.197169 -0)
(0.429261 -0.0962263 -0)
(0.182715 -0.0191821 -0)
(-0.0544653 0.743498 -0)
(-0.175719 0.659149 -0)
(-0.229091 0.483655 -0)
(-0.17356 0.245477 -0)
(0.0070588 -0.00715698 -0)
(0.286528 -0.212712 -0)
(0.584453 -0.313078 -0)
(0.773212 -0.279692 -0)
(0.714488 -0.146638 -0)
(0.324278 -0.0311678 -0)
(-0.0928248 1.24068 -0)
(-0.326288 1.13626 -0)
(-0.461764 0.899592 -0)
(-0.429089 0.559967 -0)
(-0.187423 0.175707 -0)
(0.243728 -0.167824 -0)
(0.75435 -0.376105 -0)
(1.13738 -0.384223 -0)
(1.13437 -0.218444 -0)
(0.546863 -0.049829 -0)
(-0.13938 1.85125 -0)
(-0.537533 1.73977 -0)
(-0.808396 1.45459 -0)
(-0.84233 1.01659 -0)
(-0.55561 0.483805 -0)
(0.0609289 -0.0392042 -0)
(0.878628 -0.412246 -0)
(1.58693 -0.508379 -0)
(1.73102 -0.319515 -0)
(0.889741 -0.0793116 -0)
(-0.188984 2.5049 -0)
(-0.81017 2.40977 -0)
(-1.28485 2.11322 -0)
(-1.457 1.61388 -0)
(-1.17757 0.948903 -0)
(-0.369995 0.222688 -0)
(0.856512 -0.380561 -0)
(2.08121 -0.640054 -0)
(2.54749 -0.45987 -0)
(1.4118 -0.127052 -0)
(-0.232782 3.02578 -0)
(-1.12773 2.97928 -0)
(-1.88 2.74102 -0)
(-2.29109 2.27278 -0)
(-2.12778 1.56001 -0)
(-1.19069 0.664548 -0)
(0.514847 -0.21663 -0)
(2.50699 -0.746985 -0)
(3.61117 -0.650718 -0)
(2.20349 -0.207118 -0)
(-0.259694 3.07275 -0)
(-1.44771 3.10803 -0)
(-2.53276 3.02873 -0)
(-3.29835 2.75396 -0)
(-3.42877 2.18731 -0)
(-2.54568 1.28196 -0)
(-0.40775 0.160678 -0)
(2.61577 -0.758383 -0)
(4.88829 -0.898181 -0)
(3.40642 -0.346743 -0)
(-0.260372 2.08013 -0)
(-1.69749 2.21586 -0)
(-3.11173 2.40361 -0)
(-4.31957 2.53854 -0)
(-4.96997 2.44128 -0)
(-4.49431 1.895 -0)
(-2.2336 0.794143 -0)
(1.93446 -0.541641 -0)
(6.16701 -1.17739 -0)
(5.23718 -0.595559 -0)
(-0.232515 -0.770837 0)
(-1.78305 -0.548255 0)
(-3.41626 -0.0351896 0)
(-5.04924 0.694566 -0)
(-6.4044 1.45055 -0)
(-6.83229 1.87229 -0)
(-5.1905 1.47835 -0)
(-0.301655 0.0781354 -0)
(6.78459 -1.34997 -0)
(7.99084 -1.02041 -0)
(-0.183638 -6.4989 0)
(-1.61717 -6.24468 0)
(-3.22401 -5.48858 0)
(-5.06776 -4.19767 0)
(-7.08322 -2.41073 0)
(-8.82171 -0.395322 0)
(-8.96583 1.12338 -0)
(-4.96008 0.993783 -0)
(5.08461 -1.00191 -0)
(11.9176 -1.5988 -0)
(-0.127689 -16.1245 0)
(-1.17193 -15.9347 0)
(-2.41135 -15.2611 0)
(-4.02124 -13.9373 0)
(-6.1984 -11.7006 0)
(-9.01374 -8.29627 0)
(-11.8347 -3.86274 0)
(-11.8164 0.129753 -0)
(-2.21067 0.328749 -0)
(15.7754 -1.67918 -0)
(-0.0770338 -30.2702 0)
(-0.569099 -30.3144 0)
(-1.18795 -30.3794 0)
(-2.09285 -30.2956 0)
(-3.56688 -29.6616 0)
(-6.10979 -27.6566 0)
(-10.425 -22.7601 0)
(-16.4241 -13.1539 0)
(-17.2716 -2.27828 0)
(8.22768 0.505227 0)
(-0.0281567 -48.5684 0)
(-0.1278 -49.2641 0)
(-0.262797 -51.1346 0)
(-0.487156 -54.3491 0)
(-0.922498 -59.1322 0)
(-1.86903 -65.6039 0)
(-4.11111 -73.1908 0)
(-9.67243 -77.745 0)
(-20.7122 -67.3585 0)
(-20.8575 -43.0939 0)
)
;

boundaryField
{
    movingWall
    {
        type            calculated;
        value           nonuniform List<vector> 10((0 -59.4423 0) (0 -60.7951 0) (0 -64.2689 0) (0 -70.4885 0) (0 -80.7028 0) (0 -97.2984 0) (0 -125.491 0) (0 -175.3 0) (0 -241.356 0) (0 -248.738 0));
    }
    fixedWalls
    {
        type            calculated;
        value           uniform (0 -0 0);
    }
    frontAndBack
    {
        type            empty;
    }
    procBoundary1to0
    {
        type            processor;
        value           nonuniform List<vector> 
20
(
(-0.00111926 -0.106933 0)
(-0.00457245 -0.217157 0)
(-0.00876933 -0.251895 0)
(-0.0113165 -0.235952 0)
(-0.0106503 -0.175633 0)
(-0.00480755 -0.0655563 0)
(0.00936024 0.108275 0)
(0.036727 0.365713 0)
(0.0842996 0.727765 0)
(0.161163 1.2073 0)
(0.27732 1.79189 0)
(0.440493 2.41499 0)
(0.649941 2.91268 0)
(0.887187 2.96563 0)
(1.10617 2.03374 0)
(1.23019 -0.694447 0)
(1.16772 -6.28718 0)
(0.861391 -15.8965 0)
(0.391052 -30.2869 0)
(0.0659512 -48.9635 0)
)
;
    }
}


// ************************************************************************* //
