/*--------------------------------*- C++ -*----------------------------------*\
| =========                 |                                                 |
| \\      /  F ield         | OpenFOAM: The Open Source CFD Toolbox           |
|  \\    /   O peration     | Version:  v1712                                 |
|   \\  /    A nd           | Web:      www.OpenFOAM.com                      |
|    \\/     M anipulation  |                                                 |
\*---------------------------------------------------------------------------*/
FoamFile
{
    version     2.0;
    format      ascii;
    class       volScalarField;
    location    "0.1";
    object      p;
}
// * * * * * * * * * * * * * * * * * * * * * * * * * * * * * * * * * * * * * //

dimensions      [0 2 -2 0 0 0 0];


internalField   nonuniform List<scalar> 
200
(
0.0429135
0.0583437
0.071979
0.0826335
0.0893594
0.0916149
0.0894673
0.083812
0.0765759
0.070849
0.0414523
0.0539928
0.065117
0.0738958
0.079601
0.0818326
0.0806657
0.0767374
0.0710565
0.0651867
0.040495
0.0515375
0.0613878
0.0692301
0.074405
0.076512
0.0755397
0.0718683
0.0656886
0.0575323
0.0397518
0.0503734
0.0599203
0.0675888
0.0726857
0.0747213
0.0735492
0.0693248
0.0615845
0.0502311
0.038887
0.0498465
0.0598042
0.0679117
0.0733844
0.0755922
0.0742257
0.0692327
0.059591
0.044774
0.0376731
0.049747
0.0608761
0.0701234
0.0765636
0.0793774
0.0780567
0.0723343
0.0606645
0.0421965
0.0358426
0.0498669
0.0630199
0.0742418
0.0824198
0.0864893
0.0856873
0.079487
0.0657768
0.0434027
0.0330739
0.0499464
0.0660788
0.080267
0.0911677
0.0974041
0.0978748
0.0916969
0.076055
0.0494272
0.0290201
0.0497038
0.0698857
0.0882145
0.103083
0.112725
0.115583
0.110257
0.0929688
0.0616615
0.0233628
0.0488681
0.0742746
0.0981118
0.118494
0.133192
0.140039
0.136873
0.118529
0.08209
0.0159093
0.0472451
0.0791133
0.110001
0.137774
0.159683
0.172784
0.173809
0.155545
0.113608
0.00673862
0.0448258
0.0843673
0.123955
0.161317
0.193197
0.215716
0.224072
0.207998
0.160535
-0.00362306
0.0419166
0.0901751
0.140094
0.189502
0.234789
0.271095
0.291609
0.281604
0.229535
-0.014062
0.0392267
0.0968696
0.158517
0.222524
0.285346
0.341366
0.381455
0.384683
0.331452
-0.0228926
0.037788
0.104817
0.179021
0.259948
0.344958
0.428512
0.499503
0.529352
0.484884
-0.0281868
0.0385872
0.114
0.200582
0.299984
0.411929
0.532839
0.651495
0.732367
0.721793
-0.0285705
0.0418571
0.123389
0.220766
0.338869
0.481988
0.651731
0.840989
1.01481
1.09685
-0.0245131
0.045561
0.129026
0.233096
0.36703
0.542491
0.770998
1.05893
1.4028
1.7295
-0.0192575
0.0428791
0.119328
0.218866
0.354816
0.547878
0.826166
1.23624
1.91123
2.92363
-0.0166588
0.0278014
0.0848292
0.161964
0.272595
0.442182
0.71817
1.22551
2.4107
4.84808
)
;

boundaryField
{
    movingWall
    {
        type            zeroGradient;
    }
    fixedWalls
    {
        type            zeroGradient;
    }
    frontAndBack
    {
        type            empty;
    }
    procBoundary1to0
    {
        type            processor;
        value           nonuniform List<scalar> 
20
(
0.0269764
0.0285157
0.0291438
0.0288958
0.0277737
0.0255478
0.0219101
0.0165008
0.00893434
-0.00112991
-0.0138644
-0.0290973
-0.0460996
-0.0633937
-0.0786968
-0.0891904
-0.0923824
-0.0872413
-0.0737142
-0.053711
)
;
    }
}


// ************************************************************************* //
