/*--------------------------------*- C++ -*----------------------------------*\
| =========                 |                                                 |
| \\      /  F ield         | OpenFOAM: The Open Source CFD Toolbox           |
|  \\    /   O peration     | Version:  v1712                                 |
|   \\  /    A nd           | Web:      www.OpenFOAM.com                      |
|    \\/     M anipulation  |                                                 |
\*---------------------------------------------------------------------------*/
FoamFile
{
    version     2.0;
    format      ascii;
    class       surfaceScalarField;
    location    "0.1";
    object      phi;
}
// * * * * * * * * * * * * * * * * * * * * * * * * * * * * * * * * * * * * * //

dimensions      [0 3 -1 0 0 0 0];
oriented        oriented;


internalField   nonuniform List<scalar> 
370
(
-8.50562e-07
-2.08522e-08
-7.84879e-07
-6.56832e-08
-6.79483e-07
-1.05396e-07
-5.43734e-07
-1.35749e-07
-3.9125e-07
-1.52484e-07
-2.39469e-07
-1.51782e-07
-1.08412e-07
-1.31057e-07
-1.83304e-08
-9.00819e-08
1.54018e-08
-3.3732e-08
1.54021e-08
-2.21681e-06
-7.17906e-08
-2.05905e-06
-2.23436e-07
-1.80696e-06
-3.57494e-07
-1.48253e-06
-4.6017e-07
-1.11685e-06
-5.18164e-07
-7.48354e-07
-5.20281e-07
-4.1939e-07
-4.6002e-07
-1.7038e-07
-3.39091e-07
-3.04411e-08
-1.7367e-07
-1.50389e-08
-3.38769e-06
-1.44978e-07
-3.16081e-06
-4.50319e-07
-2.79735e-06
-7.20956e-07
-2.32733e-06
-9.30192e-07
-1.79287e-06
-1.05262e-06
-1.24591e-06
-1.06724e-06
-7.43733e-07
-9.62196e-07
-3.4214e-07
-7.40684e-07
-8.61523e-08
-4.29657e-07
-1.01191e-07
-4.451e-06
-2.34547e-07
-4.16875e-06
-7.32571e-07
-3.71333e-06
-1.17637e-06
-3.11949e-06
-1.52404e-06
-2.4366e-06
-1.7355e-06
-1.72663e-06
-1.77722e-06
-1.05982e-06
-1.629e-06
-5.0821e-07
-1.2923e-06
-1.37451e-07
-8.00417e-07
-2.38642e-07
-5.45924e-06
-3.35095e-07
-5.13146e-06
-1.06035e-06
-4.59646e-06
-1.71137e-06
-3.89116e-06
-2.22934e-06
-3.0697e-06
-2.55696e-06
-2.20239e-06
-2.64453e-06
-1.37244e-06
-2.45896e-06
-6.70195e-07
-1.99454e-06
-1.8546e-07
-1.28515e-06
-4.24103e-07
-6.44112e-06
-4.40728e-07
-6.07703e-06
-1.42444e-06
-5.47308e-06
-2.31533e-06
-4.66593e-06
-3.03649e-06
-3.71221e-06
-3.51068e-06
-2.68922e-06
-3.66752e-06
-1.69344e-06
-3.45474e-06
-8.3582e-07
-2.85216e-06
-2.33691e-07
-1.88728e-06
-6.57794e-07
-7.40188e-06
-5.44458e-07
-7.01259e-06
-1.81373e-06
-6.35277e-06
-2.97516e-06
-5.45592e-06
-3.93333e-06
-4.37813e-06
-4.58847e-06
-3.20154e-06
-4.84411e-06
-2.0356e-06
-4.62068e-06
-1.01399e-06
-3.87376e-06
-2.85861e-07
-2.61542e-06
-9.43656e-07
-8.32081e-06
-6.37964e-07
-7.92138e-06
-2.21316e-06
-7.22491e-06
-3.67163e-06
-6.25791e-06
-4.90033e-06
-5.07143e-06
-5.77494e-06
-3.74856e-06
-6.16699e-06
-2.4098e-06
-5.95943e-06
-1.21326e-06
-5.0703e-06
-3.45575e-07
-3.4831e-06
-1.28923e-06
-9.147e-06
-7.11841e-07
-8.75797e-06
-2.60219e-06
-8.05359e-06
-4.37601e-06
-7.04834e-06
-5.90559e-06
-5.78173e-06
-7.04155e-06
-4.33105e-06
-7.61766e-06
-2.82333e-06
-7.46715e-06
-1.44132e-06
-6.45231e-06
-4.16436e-07
-4.50799e-06
-1.70567e-06
-9.79336e-06
-7.56438e-07
-9.44172e-06
-2.95383e-06
-8.7707e-06
-5.04703e-06
-7.77664e-06
-6.89964e-06
-6.4786e-06
-8.33959e-06
-4.93764e-06
-9.15862e-06
-3.27829e-06
-9.12651e-06
-1.70514e-06
-8.02546e-06
-5.02534e-07
-5.7106e-06
-2.2082e-06
-1.01296e-05
-7.63391e-07
-9.84878e-06
-3.23464e-06
-9.26705e-06
-5.62876e-06
-8.35615e-06
-7.81054e-06
-7.1036e-06
-9.59214e-06
-5.53917e-06
-1.07231e-05
-3.76926e-06
-1.08964e-05
-2.01121e-06
-9.78351e-06
-6.09341e-07
-7.11247e-06
-2.81754e-06
-9.97524e-06
-7.27783e-07
-9.80361e-06
-3.40627e-06
-9.38199e-06
-6.05038e-06
-8.65224e-06
-8.5403e-06
-7.55839e-06
-1.0686e-05
-6.07934e-06
-1.22021e-05
-4.27854e-06
-1.26972e-05
-2.36545e-06
-1.16966e-05
-7.45187e-07
-8.73273e-06
-3.56273e-06
-9.09463e-06
-6.50604e-07
-9.07175e-06
-3.42915e-06
-8.89254e-06
-6.22959e-06
-8.46741e-06
-8.96543e-06
-7.68752e-06
-1.14659e-05
-6.45879e-06
-1.34308e-05
-4.76615e-06
-1.43899e-05
-2.77129e-06
-1.36914e-05
-9.23606e-07
-1.05804e-05
-4.48634e-06
-7.19685e-06
-5.40638e-07
-7.35696e-06
-3.26904e-06
-7.50425e-06
-6.0823e-06
-7.52397e-06
-8.94571e-06
-7.25339e-06
-1.17365e-05
-6.50745e-06
-1.41768e-05
-5.14834e-06
-1.5749e-05
-3.22201e-06
-1.56178e-05
-1.16627e-06
-1.26362e-05
-5.6526e-06
-3.94518e-06
-4.14361e-07
-4.30741e-06
-2.90681e-06
-4.84849e-06
-5.54122e-06
-5.44668e-06
-8.34751e-06
-5.9018e-06
-1.12813e-05
-5.93717e-06
-1.41414e-05
-5.25157e-06
-1.64346e-05
-3.67528e-06
-1.71941e-05
-1.50255e-06
-1.48089e-05
-7.15515e-06
1.01795e-06
-2.92159e-07
4.61989e-07
-2.35085e-06
-4.93634e-07
-4.5856e-06
-1.75224e-06
-7.0889e-06
-3.11931e-06
-9.91428e-06
-4.26433e-06
-1.29964e-05
-4.71645e-06
-1.59825e-05
-3.97733e-06
-1.79332e-05
-1.94777e-06
-1.68385e-05
-9.10292e-06
8.02437e-06
-1.90351e-07
7.32397e-06
-1.65045e-06
6.01947e-06
-3.28109e-06
4.14204e-06
-5.21147e-06
1.80897e-06
-7.58121e-06
-6.94256e-07
-1.04932e-05
-2.81258e-06
-1.38641e-05
-3.67218e-06
-1.70736e-05
-2.41441e-06
-1.80962e-05
-1.15173e-05
1.73102e-05
-1.1238e-07
1.6568e-05
-9.08239e-07
1.5111e-05
-1.82416e-06
1.28759e-05
-2.97633e-06
9.82408e-06
-4.52938e-06
6.03478e-06
-6.70385e-06
1.89524e-06
-9.7246e-06
-1.56811e-06
-1.36102e-05
-2.46077e-06
-1.72036e-05
-1.39781e-05
2.89175e-05
-4.8613e-08
2.82967e-05
-2.87449e-07
2.70443e-05
-5.71782e-07
2.50235e-05
-9.55514e-07
2.20269e-05
-1.53284e-06
1.77978e-05
-2.47473e-06
1.21614e-05
-4.08822e-06
5.47245e-06
-6.92126e-06
-1.3057e-07
-1.16005e-05
-1.41087e-05
4.2541e-05
4.22536e-05
4.16818e-05
4.07263e-05
3.91934e-05
3.67187e-05
3.26305e-05
2.57092e-05
1.41087e-05
)
;

boundaryField
{
    movingWall
    {
        type            calculated;
        value           uniform 0;
    }
    fixedWalls
    {
        type            calculated;
        value           uniform 0;
    }
    frontAndBack
    {
        type            empty;
        value           nonuniform 0();
    }
    procBoundary1to0
    {
        type            processor;
        value           nonuniform List<scalar> 
20
(
8.71414e-07
2.26774e-06
3.46088e-06
4.54057e-06
5.55979e-06
6.54675e-06
7.50561e-06
8.41432e-06
9.22088e-06
9.83795e-06
1.01365e-05
9.93963e-06
9.01745e-06
7.08688e-06
3.81891e-06
-1.14015e-06
-8.12618e-06
-1.73882e-05
-2.89812e-05
-4.25896e-05
)
;
    }
}


// ************************************************************************* //
