/*--------------------------------*- C++ -*----------------------------------*\
| =========                 |                                                 |
| \\      /  F ield         | OpenFOAM: The Open Source CFD Toolbox           |
|  \\    /   O peration     | Version:  v1712                                 |
|   \\  /    A nd           | Web:      www.OpenFOAM.com                      |
|    \\/     M anipulation  |                                                 |
\*---------------------------------------------------------------------------*/
FoamFile
{
    version     2.0;
    format      ascii;
    class       volVectorField;
    location    "0.1";
    object      U;
}
// * * * * * * * * * * * * * * * * * * * * * * * * * * * * * * * * * * * * * //

dimensions      [0 1 -1 0 0 0 0];


internalField   nonuniform List<vector> 
200
(
(-0.0174188 -0.000142386 0)
(-0.0165393 -0.000460305 0)
(-0.0147966 -0.000742858 0)
(-0.0123353 -0.00095862 0)
(-0.00938694 -0.0010744 0)
(-0.00626644 -0.00105838 0)
(-0.00335703 -0.000886076 0)
(-0.00107556 -0.000550039 0)
(0.000191002 -9.06583e-05 0)
(0.000263428 0.00025798 0)
(-0.0453663 -0.000795232 0)
(-0.0432423 -0.0024993 0)
(-0.0390619 -0.00400573 0)
(-0.0331709 -0.00515482 0)
(-0.0261055 -0.00578923 0)
(-0.0185733 -0.00577227 0)
(-0.0114006 -0.00501873 0)
(-0.00543799 -0.00353971 0)
(-0.00147472 -0.00154038 0)
(-4.30202e-05 0.000222001 0)
(-0.0692528 -0.0020583 0)
(-0.0661998 -0.00640042 0)
(-0.0601817 -0.0102396 0)
(-0.051671 -0.0131866 0)
(-0.041397 -0.0148695 0)
(-0.0303172 -0.0149808 0)
(-0.0195429 -0.0133484 0)
(-0.0102183 -0.0100315 0)
(-0.00350047 -0.00547584 0)
(-0.000471017 -0.000938594 0)
(-0.0908826 -0.00371986 0)
(-0.0871048 -0.0115715 0)
(-0.0795948 -0.0185418 0)
(-0.0688951 -0.0239549 0)
(-0.0558537 -0.027169 0)
(-0.0416013 -0.0276548 0)
(-0.0274736 -0.0251103 0)
(-0.0148903 -0.0196038 0)
(-0.00543201 -0.0117633 0)
(-0.000850532 -0.00318343 0)
(-0.11133 -0.00564783 0)
(-0.106987 -0.0177183 0)
(-0.0982187 -0.0285029 0)
(-0.0855908 -0.0370018 0)
(-0.0700161 -0.0422549 0)
(-0.0527525 -0.0434498 0)
(-0.0353398 -0.0400804 0)
(-0.0194938 -0.0321344 0)
(-0.00728113 -0.0203131 0)
(-0.00118924 -0.00641398 0)
(-0.131169 -0.00773925 0)
(-0.12642 -0.0246827 0)
(-0.116603 -0.0399448 0)
(-0.102262 -0.052173 0)
(-0.0843239 -0.0600357 0)
(-0.0641327 -0.0623571 0)
(-0.0434193 -0.0583182 0)
(-0.0242216 -0.0477007 0)
(-0.00915803 -0.0311537 0)
(-0.00152186 -0.0105953 0)
(-0.150491 -0.00986978 0)
(-0.145524 -0.0322786 0)
(-0.134914 -0.0526586 0)
(-0.119127 -0.0692865 0)
(-0.099043 -0.0804048 0)
(-0.0760346 -0.0843735 0)
(-0.0519941 -0.0799186 0)
(-0.0292978 -0.0664484 0)
(-0.0111899 -0.044408 0)
(-0.00188446 -0.0157682 0)
(-0.168855 -0.0118869 0)
(-0.163912 -0.0402529 0)
(-0.152868 -0.0663372 0)
(-0.136045 -0.0880477 0)
(-0.114185 -0.103151 0)
(-0.0886031 -0.109429 0)
(-0.061284 -0.104969 0)
(-0.0349323 -0.0885827 0)
(-0.0135032 -0.0603005 0)
(-0.00231244 -0.0220476 0)
(-0.185211 -0.0136118 0)
(-0.180601 -0.0482567 0)
(-0.169634 -0.0805175 0)
(-0.15241 -0.107967 0)
(-0.129414 -0.127867 0)
(-0.101758 -0.137297 0)
(-0.0713964 -0.133485 0)
(-0.0413008 -0.114336 0)
(-0.0162237 -0.0791494 0)
(-0.00284367 -0.0296208 0)
(-0.197784 -0.0148498 0)
(-0.193881 -0.0558189 0)
(-0.183696 -0.0945144 0)
(-0.167014 -0.128259 0)
(-0.143912 -0.153818 0)
(-0.115097 -0.167464 0)
(-0.0822738 -0.165297 0)
(-0.0485351 -0.143898 0)
(-0.0194882 -0.101346 0)
(-0.00352627 -0.0387506 0)
(-0.203946 -0.0154127 0)
(-0.201173 -0.0623337 0)
(-0.192684 -0.107365 0)
(-0.177865 -0.147732 0)
(-0.156209 -0.17979 0)
(-0.127751 -0.198943 0)
(-0.0936119 -0.199882 0)
(-0.0567076 -0.177308 0)
(-0.023467 -0.127327 0)
(-0.00443258 -0.0497933 0)
(-0.200087 -0.0151558 0)
(-0.198873 -0.0670711 0)
(-0.193184 -0.117795 0)
(-0.181954 -0.164697 0)
(-0.163932 -0.203919 0)
(-0.138162 -0.230045 0)
(-0.104712 -0.236116 0)
(-0.0657886 -0.214279 0)
(-0.0283945 -0.157529 0)
(-0.00568382 -0.0632416 0)
(-0.181524 -0.0140251 0)
(-0.18224 -0.0692242 0)
(-0.180564 -0.124241 0)
(-0.175002 -0.176921 0)
(-0.163469 -0.223533 0)
(-0.143728 -0.258095 0)
(-0.114198 -0.271926 0)
(-0.0755278 -0.2539 0)
(-0.0346029 -0.1923 0)
(-0.00749288 -0.0798096 0)
(-0.142513 -0.0121044 0)
(-0.145386 -0.0680063 0)
(-0.148871 -0.124965 0)
(-0.151197 -0.181684 0)
(-0.149541 -0.235075 0)
(-0.140244 -0.279144 0)
(-0.119484 -0.303793 0)
(-0.0851426 -0.294127 0)
(-0.0425146 -0.231674 0)
(-0.0102274 -0.100573 0)
(-0.0764418 -0.00964158 0)
(-0.0814575 -0.0628168 0)
(-0.0908907 -0.118326 0)
(-0.103021 -0.176081 0)
(-0.114682 -0.234272 0)
(-0.121044 -0.287821 0)
(-0.115749 -0.326186 0)
(-0.0925293 -0.330943 0)
(-0.0524122 -0.27482 0)
(-0.0144458 -0.127128 0)
(0.0236825 -0.00701875 0)
(0.0168563 -0.0534701 0)
(0.00146522 -0.103259 0)
(-0.0213136 -0.157668 0)
(-0.048759 -0.216747 0)
(-0.0757896 -0.277568 0)
(-0.0940828 -0.331034 0)
(-0.0923577 -0.357042 0)
(-0.0633906 -0.318853 0)
(-0.020652 -0.161809 0)
(0.164323 -0.00463834 0)
(0.156371 -0.0404366 0)
(0.136291 -0.0799176 0)
(0.104182 -0.125484 0)
(0.0612312 -0.179226 0)
(0.0110268 -0.241497 0)
(-0.0383537 -0.307378 0)
(-0.0719699 -0.35972 0)
(-0.0701658 -0.356318 0)
(-0.0279312 -0.20827 0)
(0.35003 -0.00277376 0)
(0.342 -0.0251555 0)
(0.320269 -0.0506027 0)
(0.283595 -0.0818068 0)
(0.230713 -0.122171 0)
(0.161531 -0.175384 0)
(0.0794618 -0.243162 0)
(-0.00343401 -0.31891 0)
(-0.0547621 -0.368461 0)
(-0.028475 -0.267568 0)
(0.581468 -0.0014821 0)
(0.574816 -0.0107989 0)
(0.556503 -0.0217727 0)
(0.524436 -0.0362408 0)
(0.475209 -0.0571547 0)
(0.404111 -0.0892778 0)
(0.304892 -0.139643 0)
(0.173262 -0.216306 0)
(0.0411171 -0.311605 0)
(0.0184228 -0.299985 0)
(0.852325 -0.000495122 0)
(0.849057 -0.00220507 0)
(0.840708 -0.00432413 0)
(0.825894 -0.00740687 0)
(0.801884 -0.0125139 0)
(0.763481 -0.021755 0)
(0.699021 -0.0392669 0)
(0.583912 -0.0726477 0)
(0.415819 -0.127862 0)
(0.308822 -0.14947 0)
)
;

boundaryField
{
    movingWall
    {
        type            fixedValue;
        value           uniform (1 0 0);
    }
    fixedWalls
    {
        type            noSlip;
    }
    frontAndBack
    {
        type            empty;
    }
    procBoundary1to0
    {
        type            processor;
        value           nonuniform List<vector> 
20
(
(-0.0173737 0.000182044 0)
(-0.0452798 0.000953704 0)
(-0.069128 0.00240618 0)
(-0.0906894 0.00434827 0)
(-0.111012 0.00673051 0)
(-0.13065 0.00958189 0)
(-0.14968 0.0129452 0)
(-0.167663 0.0168517 0)
(-0.183569 0.0212908 0)
(-0.195682 0.0261672 0)
(-0.201472 0.0312497 0)
(-0.197472 0.0361163 0)
(-0.179178 0.0401138 0)
(-0.141011 0.0423633 0)
(-0.0764248 0.0418644 0)
(0.0217356 0.0377587 0)
(0.160449 0.0297581 0)
(0.345143 0.018704 0)
(0.577408 0.00745929 0)
(0.851032 0.00114687 0)
)
;
    }
}


// ************************************************************************* //
