/*--------------------------------*- C++ -*----------------------------------*\
| =========                 |                                                 |
| \\      /  F ield         | OpenFOAM: The Open Source CFD Toolbox           |
|  \\    /   O peration     | Version:  v1712                                 |
|   \\  /    A nd           | Web:      www.OpenFOAM.com                      |
|    \\/     M anipulation  |                                                 |
\*---------------------------------------------------------------------------*/
FoamFile
{
    version     2.0;
    format      ascii;
    class       volVectorField;
    location    "0.1";
    object      LPrime;
}
// * * * * * * * * * * * * * * * * * * * * * * * * * * * * * * * * * * * * * //

dimensions      [0 1 -2 0 0 0 0];


internalField   nonuniform List<vector> 
200
(
(-7.47155e-06 -7.57762e-06 0)
(-2.50391e-05 3.06159e-05 0)
(-0.000417137 -0.000868734 0)
(-0.00133733 -0.00525771 0)
(-0.00256019 -0.0156117 0)
(-0.00365168 -0.0325695 0)
(-0.00419287 -0.0542979 0)
(-0.00393214 -0.0769734 0)
(-0.00284342 -0.0959214 0)
(-0.00111926 -0.106933 0)
(3.64318e-05 -1.67899e-05 -0)
(-0.00120966 -0.00118258 0)
(-0.00445032 -0.00699612 0)
(-0.00900738 -0.0209566 0)
(-0.0138366 -0.0455157 0)
(-0.0175557 -0.0804827 0)
(-0.0188667 -0.122139 0)
(-0.0170045 -0.16386 0)
(-0.0119765 -0.197833 0)
(-0.00457245 -0.217157 0)
(-0.000805516 -0.000389416 0)
(-0.00728549 -0.00470943 0)
(-0.0169784 -0.0175757 0)
(-0.0269454 -0.0401788 0)
(-0.0352155 -0.0725139 0)
(-0.0400519 -0.112951 0)
(-0.0400115 -0.157427 0)
(-0.0343767 -0.199819 0)
(-0.0234843 -0.233269 0)
(-0.00876933 -0.251895 0)
(-0.00549777 -0.0014668 0)
(-0.0238215 -0.011097 0)
(-0.0425616 -0.0327098 0)
(-0.0563799 -0.0625218 0)
(-0.0637093 -0.0970447 0)
(-0.0644189 -0.133547 0)
(-0.0587678 -0.169058 0)
(-0.0472853 -0.20016 0)
(-0.0309557 -0.223387 0)
(-0.0113165 -0.235952 0)
(-0.0188537 -0.00351164 0)
(-0.0590584 -0.0212753 0)
(-0.088036 -0.0537331 0)
(-0.100395 -0.0891567 0)
(-0.0982947 -0.120058 0)
(-0.0864502 -0.143517 0)
(-0.069307 -0.159325 0)
(-0.049989 -0.16874 0)
(-0.0302299 -0.173576 0)
(-0.0106503 -0.175633 0)
(-0.0472839 -0.00679957 0)
(-0.124087 -0.0363947 0)
(-0.162669 -0.0824187 0)
(-0.163376 -0.121446 0)
(-0.138138 -0.141658 0)
(-0.101403 -0.141408 0)
(-0.0649676 -0.125367 0)
(-0.0359144 -0.10162 0)
(-0.0164767 -0.0790965 0)
(-0.00480755 -0.0655563 0)
(-0.098967 -0.011713 0)
(-0.232815 -0.0578673 0)
(-0.277401 -0.120641 0)
(-0.249402 -0.160142 0)
(-0.180304 -0.160145 0)
(-0.101332 -0.122475 0)
(-0.0355675 -0.0594556 0)
(0.00469985 0.0115024 0)
(0.0175063 0.0724394 0)
(0.00936024 0.108275 0)
(-0.18442 -0.0188225 0)
(-0.402197 -0.0874836 0)
(-0.44399 -0.170202 0)
(-0.360424 -0.204758 0)
(-0.217516 -0.17116 0)
(-0.0729508 -0.078105 0)
(0.0343473 0.0508027 0)
(0.0860991 0.186041 0)
(0.0821872 0.298851 0)
(0.036727 0.365713 0)
(-0.317405 -0.0289914 0)
(-0.652555 -0.12756 0)
(-0.673598 -0.232599 0)
(-0.493554 -0.252765 0)
(-0.235175 -0.166706 0)
(0.00479479 0.00461681 0)
(0.167057 0.221688 0)
(0.227835 0.440196 0)
(0.19175 0.61961 0)
(0.0842996 0.727765 0)
(-0.51631 -0.0436007 0)
(-1.00774 -0.181216 0)
(-0.974084 -0.308606 0)
(-0.636667 -0.29835 0)
(-0.207215 -0.133933 0)
(0.163363 0.142854 0)
(0.39258 0.471048 0)
(0.454503 0.789938 0)
(0.36354 1.04833 0)
(0.161163 1.2073 0)
(-0.806511 -0.0650776 0)
(-1.49478 -0.252963 0)
(-1.34468 -0.397445 0)
(-0.761094 -0.330326 0)
(-0.090382 -0.0537012 0)
(0.446989 0.356621 0)
(0.747921 0.812709 0)
(0.793241 1.23891 0)
(0.615494 1.57859 0)
(0.27732 1.79189 0)
(-1.22499 -0.0981233 0)
(-2.14196 -0.349758 0)
(-1.76521 -0.494836 0)
(-0.809272 -0.328519 0)
(0.183293 0.100493 0)
(0.913552 0.663857 0)
(1.27282 1.24427 0)
(1.26723 1.75941 0)
(0.960182 2.15947 0)
(0.440493 2.41499 0)
(-1.82976 -0.152485 0)
(-2.97211 -0.482375 0)
(-2.17387 -0.587943 0)
(-0.674387 -0.257838 0)
(0.714711 0.360582 0)
(1.63063 1.06626 0)
(1.9987 1.72145 0)
(1.88282 2.2584 0)
(1.39402 2.65599 0)
(0.649941 2.91268 0)
(-2.71846 -0.248882 0)
(-3.9802 -0.665 0)
(-2.42132 -0.642482 0)
(-0.170121 -0.061285 0)
(1.64018 0.748938 0)
(2.65865 1.51106 0)
(2.92506 2.10475 0)
(2.6079 2.51841 0)
(1.88126 2.79019 0)
(0.887187 2.96563 0)
(-4.0594 -0.429634 0)
(-5.062 -0.902893 0)
(-2.18094 -0.573678 0)
(1.00018 0.333367 0)
(3.1066 1.21677 0)
(4.00385 1.7925 0)
(3.97585 2.05152 0)
(3.34123 2.09955 0)
(2.33574 2.06048 0)
(1.10617 2.03374 0)
(-6.12858 -0.766238 0)
(-5.80462 -1.13104 0)
(-0.80313 -0.206053 0)
(3.21933 0.916616 0)
(5.16325 1.43624 0)
(5.5136 1.31584 0)
(4.93251 0.812528 0)
(3.88128 0.192476 0)
(2.61088 -0.350334 0)
(1.23019 -0.694447 0)
(-9.28974 -1.30213 0)
(-4.93163 -1.02305 0)
(2.77189 0.616579 0)
(6.67297 1.10028 0)
(7.45721 0.196282 0)
(6.69266 -1.39923 0)
(5.36398 -3.09105 0)
(3.92167 -4.54941 0)
(2.51884 -5.63122 0)
(1.16772 -6.28718 0)
(-12.9475 -1.60519 0)
(0.823364 0.149366 0)
(9.26387 0.682558 0)
(10.3273 -2.16013 0)
(8.67692 -6.03335 0)
(6.55085 -9.51722 0)
(4.66905 -12.1837 0)
(3.1474 -14.0413 0)
(1.91504 -15.2319 0)
(0.861391 -15.8965 0)
(-6.97872 0.200266 0)
(15.5786 -1.04444 0)
(15.4207 -10.1622 0)
(10.5826 -19.5065 0)
(6.7402 -25.2824 0)
(4.22459 -28.3141 0)
(2.64046 -29.7036 0)
(1.62159 -30.212 0)
(0.922806 -30.315 0)
(0.391052 -30.2869 0)
(20.7271 -42.5058 0)
(21.0893 -65.5444 0)
(10.5558 -77.3362 0)
(4.85937 -74.9868 0)
(2.35216 -68.4806 0)
(1.20134 -62.1382 0)
(0.641718 -56.9448 0)
(0.349471 -53.0692 0)
(0.179999 -50.4435 0)
(0.0659512 -48.9635 0)
)
;

boundaryField
{
    movingWall
    {
        type            calculated;
        value           nonuniform List<vector> 10((0 147.206 0) (0 151.514 0) (0 214.589 0) (0 264.724 0) (0 294.661 0) (0 313.147 0) (0 325.11 0) (0 332.825 0) (0 337.559 0) (0 340.025 0));
    }
    fixedWalls
    {
        type            calculated;
        value           uniform (0 -0 0);
    }
    frontAndBack
    {
        type            empty;
    }
    procBoundary0to1
    {
        type            processor;
        value           nonuniform List<vector> 
20
(
(0.000878649 -0.107416 -0)
(0.00381462 -0.217703 -0)
(0.00749096 -0.2523 -0)
(0.00966206 -0.236403 -0)
(0.00892565 -0.176266 -0)
(0.00388656 -0.0660179 -0)
(-0.00715437 0.10937 -0)
(-0.0260719 0.371444 -0)
(-0.0544653 0.743498 -0)
(-0.0928248 1.24068 -0)
(-0.13938 1.85125 -0)
(-0.188984 2.5049 -0)
(-0.232782 3.02578 -0)
(-0.259694 3.07275 -0)
(-0.260372 2.08013 -0)
(-0.232515 -0.770837 0)
(-0.183638 -6.4989 0)
(-0.127689 -16.1245 0)
(-0.0770338 -30.2702 0)
(-0.0281567 -48.5684 0)
)
;
    }
}


// ************************************************************************* //
