/*--------------------------------*- C++ -*----------------------------------*\
| =========                 |                                                 |
| \\      /  F ield         | OpenFOAM: The Open Source CFD Toolbox           |
|  \\    /   O peration     | Version:  v1712                                 |
|   \\  /    A nd           | Web:      www.OpenFOAM.com                      |
|    \\/     M anipulation  |                                                 |
\*---------------------------------------------------------------------------*/
FoamFile
{
    version     2.0;
    format      ascii;
    class       volScalarField;
    location    "0.1";
    object      p;
}
// * * * * * * * * * * * * * * * * * * * * * * * * * * * * * * * * * * * * * //

dimensions      [0 2 -2 0 0 0 0];


internalField   nonuniform List<scalar> 
200
(
-4.7957e-08
-0.00577304
-0.0128384
-0.0182213
-0.0201936
-0.0179974
-0.0115787
-0.00137944
0.0118146
0.0269764
0.00563949
-0.000299178
-0.00582756
-0.00951748
-0.010542
-0.00837074
-0.00293413
0.00545413
0.0162028
0.0285157
0.0130041
0.00480665
-0.00114893
-0.00452701
-0.00534374
-0.00332177
0.00153529
0.00893009
0.0183565
0.0291438
0.0196342
0.00834125
0.000967015
-0.00286766
-0.00387966
-0.00201869
0.00260404
0.00964636
0.0186167
0.0288958
0.0238786
0.00932919
0.000256767
-0.00425182
-0.00551689
-0.00368669
0.00101585
0.0081819
0.0173028
0.0277737
0.0245078
0.00666834
-0.00416832
-0.0093516
-0.01075
-0.00869311
-0.00351693
0.00429026
0.0141833
0.0255478
0.0204548
-0.000725199
-0.013289
-0.0189936
-0.020255
-0.0175876
-0.0114489
-0.00241728
0.00891435
0.0219101
0.0106096
-0.0140083
-0.028175
-0.0340915
-0.0347832
-0.0309823
-0.0232873
-0.0123773
0.00110374
0.0165008
-0.00633358
-0.0345395
-0.0500806
-0.0557096
-0.0551996
-0.0495694
-0.0395936
-0.0260643
-0.00966982
0.00893434
-0.0320165
-0.0640038
-0.0805169
-0.0850755
-0.0824472
-0.0740546
-0.060901
-0.0439028
-0.0237735
-0.00112991
-0.0686072
-0.104579
-0.121331
-0.123567
-0.117465
-0.105032
-0.0875684
-0.066118
-0.0413797
-0.0138644
-0.119143
-0.159198
-0.174807
-0.172663
-0.161043
-0.14279
-0.119566
-0.0925227
-0.0622668
-0.0290973
-0.188223
-0.231993
-0.243776
-0.233824
-0.213579
-0.187014
-0.156179
-0.122241
-0.0855724
-0.0460996
-0.283504
-0.329029
-0.331672
-0.308184
-0.274638
-0.236353
-0.195623
-0.153392
-0.109546
-0.0633937
-0.41888
-0.459444
-0.442262
-0.395789
-0.342166
-0.287763
-0.234579
-0.182803
-0.131391
-0.0786968
-0.620224
-0.636641
-0.578724
-0.494343
-0.411439
-0.335841
-0.267891
-0.205982
-0.147431
-0.0891904
-0.935824
-0.878592
-0.74197
-0.598288
-0.474782
-0.373024
-0.289147
-0.217918
-0.153979
-0.0923824
-1.47656
-1.20691
-0.920922
-0.691918
-0.51788
-0.388086
-0.290504
-0.213642
-0.14828
-0.0872413
-2.53998
-1.63099
-1.04502
-0.711659
-0.496502
-0.352813
-0.255145
-0.184042
-0.126453
-0.0737142
-4.36709
-2.04517
-0.974249
-0.564049
-0.3588
-0.241086
-0.170948
-0.124429
-0.0879063
-0.053711
)
;

boundaryField
{
    movingWall
    {
        type            zeroGradient;
    }
    fixedWalls
    {
        type            zeroGradient;
    }
    frontAndBack
    {
        type            empty;
    }
    procBoundary0to1
    {
        type            processor;
        value           nonuniform List<scalar> 
20
(
0.0429135
0.0414523
0.040495
0.0397518
0.038887
0.0376731
0.0358426
0.0330739
0.0290201
0.0233628
0.0159093
0.00673862
-0.00362306
-0.014062
-0.0228926
-0.0281868
-0.0285705
-0.0245131
-0.0192575
-0.0166588
)
;
    }
}


// ************************************************************************* //
