/*--------------------------------*- C++ -*----------------------------------*\
| =========                 |                                                 |
| \\      /  F ield         | OpenFOAM: The Open Source CFD Toolbox           |
|  \\    /   O peration     | Version:  v1712                                 |
|   \\  /    A nd           | Web:      www.OpenFOAM.com                      |
|    \\/     M anipulation  |                                                 |
\*---------------------------------------------------------------------------*/
FoamFile
{
    version     2.0;
    format      ascii;
    class       surfaceScalarField;
    location    "0.1";
    object      phi;
}
// * * * * * * * * * * * * * * * * * * * * * * * * * * * * * * * * * * * * * //

dimensions      [0 3 -1 0 0 0 0];
oriented        oriented;


internalField   nonuniform List<scalar> 
370
(
1.39862e-08
-1.3986e-08
-2.19008e-08
3.5888e-08
-1.12547e-07
9.06447e-08
-2.41687e-07
1.29141e-07
-3.89848e-07
1.4816e-07
-5.38625e-07
1.48777e-07
-6.72198e-07
1.33573e-07
-7.77895e-07
1.05698e-07
-8.46324e-07
6.84284e-08
2.509e-08
-3.3717e-08
1.97307e-08
-1.77531e-07
1.79701e-07
-4.26999e-07
3.40112e-07
-7.51967e-07
4.54108e-07
-1.11356e-06
5.09756e-07
-1.47239e-06
5.07608e-07
-1.79292e-06
4.54102e-07
-2.04576e-06
3.58537e-07
-2.20878e-06
2.31449e-07
8.40522e-08
-9.07327e-08
1.10463e-07
-3.51255e-07
4.40224e-07
-7.52216e-07
7.41073e-07
-1.24789e-06
9.49781e-07
-1.78504e-06
1.04691e-06
-2.31045e-06
1.03301e-06
-2.77589e-06
9.19545e-07
-3.14122e-06
7.23865e-07
-3.37607e-06
4.66296e-07
1.68864e-07
-1.42931e-07
2.53393e-07
-5.17349e-07
8.14643e-07
-1.06498e-06
1.2887e-06
-1.72055e-06
1.60535e-06
-2.41631e-06
1.74267e-06
-3.08758e-06
1.70429e-06
-3.67702e-06
1.50898e-06
-4.13731e-06
1.18416e-06
-4.43282e-06
7.61806e-07
2.76611e-07
-1.90832e-07
4.44225e-07
-6.75406e-07
1.29922e-06
-1.36633e-06
1.97963e-06
-2.17649e-06
2.41551e-06
-3.02261e-06
2.58879e-06
-3.82926e-06
2.51094e-06
-4.53179e-06
2.21151e-06
-5.07802e-06
1.73039e-06
-5.42907e-06
1.11285e-06
4.07329e-07
-2.37004e-07
6.81229e-07
-8.30337e-07
1.89255e-06
-1.66336e-06
2.81266e-06
-2.62556e-06
3.37771e-06
-3.61723e-06
3.58046e-06
-4.55256e-06
3.44627e-06
-5.36104e-06
3.01998e-06
-5.98748e-06
2.35683e-06
-6.39147e-06
1.51684e-06
5.62615e-07
-2.83995e-07
9.65224e-07
-9.87767e-07
2.59632e-06
-1.96363e-06
3.78851e-06
-3.07588e-06
4.48996e-06
-4.20782e-06
4.7124e-06
-5.26409e-06
4.50255e-06
-6.17015e-06
3.92604e-06
-6.87006e-06
3.05674e-06
-7.32391e-06
1.97069e-06
7.4432e-07
-3.34091e-07
1.29931e-06
-1.15279e-06
3.41503e-06
-2.27302e-06
4.90874e-06
-3.53136e-06
5.74831e-06
-4.79395e-06
5.97498e-06
-5.9577e-06
5.6663e-06
-6.94702e-06
4.91536e-06
-7.70851e-06
3.81823e-06
-8.20561e-06
2.46779e-06
9.5303e-07
-3.89502e-07
1.68882e-06
-1.32995e-06
4.35547e-06
-2.59513e-06
6.17392e-06
-3.99031e-06
7.14348e-06
-5.365e-06
7.34968e-06
-6.61189e-06
6.91319e-06
-7.65914e-06
5.96261e-06
-8.46078e-06
4.61987e-06
-8.98773e-06
2.99474e-06
1.18618e-06
-4.52984e-07
2.1418e-06
-1.52402e-06
5.42651e-06
-2.93141e-06
7.58131e-06
-4.44431e-06
8.65638e-06
-5.89782e-06
8.80319e-06
-7.18647e-06
8.20184e-06
-8.24956e-06
7.0257e-06
-9.05554e-06
5.42585e-06
-9.58844e-06
3.52765e-06
1.43569e-06
-5.28951e-07
2.67075e-06
-1.74158e-06
6.63914e-06
-3.28143e-06
9.12116e-06
-4.8765e-06
1.02514e-05
-6.35297e-06
1.02797e-05
-7.61743e-06
9.4663e-06
-8.63116e-06
8.03943e-06
-9.38626e-06
6.18095e-06
-9.88695e-06
4.02834e-06
1.68529e-06
-6.25337e-07
3.29609e-06
-1.99278e-06
8.00659e-06
-3.6421e-06
1.07705e-05
-5.25719e-06
1.18665e-05
-6.66765e-06
1.16901e-05
-7.8087e-06
1.06074e-05
-8.67844e-06
8.90918e-06
-9.30381e-06
6.80631e-06
-9.71686e-06
4.44138e-06
1.90806e-06
-7.56631e-07
4.05272e-06
-2.29267e-06
9.54262e-06
-4.00289e-06
1.24807e-05
-5.53324e-06
1.33969e-05
-6.74187e-06
1.28988e-05
-7.61816e-06
1.14836e-05
-8.21569e-06
9.50671e-06
-8.60759e-06
7.19822e-06
-8.86001e-06
4.6938e-06
2.06549e-06
-9.48333e-07
5.00105e-06
-2.65874e-06
1.1253e-05
-4.33074e-06
1.41527e-05
-5.60365e-06
1.46698e-05
-6.41172e-06
1.37068e-05
-6.83423e-06
1.19061e-05
-6.99988e-06
9.67236e-06
-7.03546e-06
7.23379e-06
-7.04228e-06
4.70062e-06
2.1101e-06
-1.24058e-06
6.24163e-06
-3.09414e-06
1.31066e-05
-4.5289e-06
1.55875e-05
-5.26751e-06
1.54084e-05
-5.40049e-06
1.38398e-05
-5.13878e-06
1.16444e-05
-4.69805e-06
9.23163e-06
-4.25437e-06
6.79012e-06
-3.93453e-06
4.38078e-06
1.99447e-06
-1.67672e-06
7.91835e-06
-3.52333e-06
1.49532e-05
-4.33526e-06
1.63994e-05
-4.12069e-06
1.51938e-05
-3.23754e-06
1.29567e-05
-2.05567e-06
1.04626e-05
-8.63244e-07
8.03921e-06
1.42276e-07
5.7846e-06
8.35211e-07
3.68784e-06
1.68953e-06
-2.23278e-06
1.01511e-05
-3.59802e-06
1.63184e-05
-3.09406e-06
1.58954e-05
-1.37089e-06
1.34707e-05
8.58072e-07
1.07277e-05
3.10391e-06
8.21673e-06
5.07593e-06
6.06719e-06
6.6174e-06
4.24313e-06
7.64829e-06
2.65696e-06
1.21164e-06
-2.57481e-06
1.27259e-05
-2.18809e-06
1.59317e-05
7.07101e-07
1.30002e-05
4.44997e-06
9.72779e-06
8.10358e-06
7.07409e-06
1.12613e-05
5.05901e-06
1.37789e-05
3.54955e-06
1.56297e-05
2.39232e-06
1.68276e-05
1.45907e-06
6.51101e-07
-7.84953e-07
1.35109e-05
4.07929e-06
1.10675e-05
1.02923e-05
6.78723e-06
1.57826e-05
4.23749e-06
2.01398e-05
2.71687e-06
2.34322e-05
1.76666e-06
2.58276e-05
1.15408e-06
2.74824e-05
7.37597e-07
2.85107e-05
4.30699e-07
1.80609e-07
1.35109e-05
2.45784e-05
3.13656e-05
3.56031e-05
3.832e-05
4.00866e-05
4.12407e-05
4.19783e-05
4.2409e-05
)
;

boundaryField
{
    movingWall
    {
        type            calculated;
        value           uniform 0;
    }
    fixedWalls
    {
        type            calculated;
        value           uniform 0;
    }
    frontAndBack
    {
        type            empty;
        value           nonuniform 0();
    }
    procBoundary0to1
    {
        type            processor;
        value           nonuniform List<scalar> 
20
(
-8.71414e-07
-2.26774e-06
-3.46088e-06
-4.54057e-06
-5.55979e-06
-6.54675e-06
-7.50561e-06
-8.41432e-06
-9.22088e-06
-9.83795e-06
-1.01365e-05
-9.93963e-06
-9.01745e-06
-7.08688e-06
-3.81891e-06
1.14015e-06
8.12618e-06
1.73882e-05
2.89812e-05
4.25896e-05
)
;
    }
}


// ************************************************************************* //
