/*--------------------------------*- C++ -*----------------------------------*\
| =========                 |                                                 |
| \\      /  F ield         | OpenFOAM: The Open Source CFD Toolbox           |
|  \\    /   O peration     | Version:  v1712                                 |
|   \\  /    A nd           | Web:      www.OpenFOAM.com                      |
|    \\/     M anipulation  |                                                 |
\*---------------------------------------------------------------------------*/
FoamFile
{
    version     2.0;
    format      ascii;
    class       volVectorField;
    location    "0.1";
    object      U;
}
// * * * * * * * * * * * * * * * * * * * * * * * * * * * * * * * * * * * * * //

dimensions      [0 1 -1 0 0 0 0];


internalField   nonuniform List<vector> 
200
(
(0.000248121 -0.000246853 0)
(0.000138054 0.000109485 0)
(-0.0011603 0.00055661 0)
(-0.00342773 0.000871875 0)
(-0.00627761 0.00102975 0)
(-0.00931899 0.00104524 0)
(-0.0122039 0.000942831 0)
(-0.0146447 0.000748536 0)
(-0.0164197 0.000487069 0)
(-0.0173737 0.000182044 0)
(-7.79186e-05 -0.000164989 0)
(-0.00158781 0.00161886 0)
(-0.00560247 0.00356025 0)
(-0.0115291 0.00495366 0)
(-0.0185827 0.00564891 0)
(-0.0259642 0.00566435 0)
(-0.032912 0.00508507 0)
(-0.038768 0.00402429 0)
(-0.0430127 0.00260473 0)
(-0.0452798 0.000953704 0)
(-0.000520699 0.00107535 0)
(-0.00365219 0.00564431 0)
(-0.010419 0.0100586 0)
(-0.0196686 0.0131868 0)
(-0.0302642 0.0146964 0)
(-0.0411373 0.014588 0)
(-0.0512621 0.0130307 0)
(-0.059742 0.0102798 0)
(-0.065865 0.00663194 0)
(-0.069128 0.00240618 0)
(-0.000913971 0.00342557 0)
(-0.00560351 0.0120256 0)
(-0.0150668 0.0196008 0)
(-0.0274876 0.0247865 0)
(-0.0413374 0.0271406 0)
(-0.0553079 0.0266842 0)
(-0.068174 0.0237047 0)
(-0.078876 0.0186386 0)
(-0.0865777 0.0119999 0)
(-0.0906894 0.00434827 0)
(-0.00126066 0.00677154 0)
(-0.00742989 0.020629 0)
(-0.0195293 0.0320029 0)
(-0.0350415 0.0394694 0)
(-0.0520091 0.0425972 0)
(-0.0688816 0.0415105 0)
(-0.0842634 0.0366725 0)
(-0.0969765 0.028743 0)
(-0.106107 0.0184867 0)
(-0.111012 0.00673051 0)
(-0.00158783 0.0110508 0)
(-0.00920624 0.0314074 0)
(-0.023923 0.0472435 0)
(-0.0424949 0.0572027 0)
(-0.0625071 0.0609967 0)
(-0.0821611 0.0589615 0)
(-0.0999109 0.0518162 0)
(-0.114497 0.0404967 0)
(-0.124964 0.0260489 0)
(-0.13065 0.00958189 0)
(-0.00192146 0.0162539 0)
(-0.0110167 0.0443669 0)
(-0.0283843 0.0653295 0)
(-0.0500099 0.0779628 0)
(-0.0729932 0.0822686 0)
(-0.0952909 0.0789277 0)
(-0.115237 0.0690148 0)
(-0.131532 0.0538036 0)
(-0.14323 0.0346494 0)
(-0.14968 0.0129452 0)
(-0.00228486 0.0224204 0)
(-0.0129399 0.059571 0)
(-0.0330344 0.0862895 0)
(-0.0576974 0.101702 0)
(-0.0835114 0.106281 0)
(-0.108209 0.101218 0)
(-0.130056 0.088062 0)
(-0.147784 0.0684955 0)
(-0.160515 0.0442045 0)
(-0.167663 0.0168517 0)
(-0.00270186 0.0296343 0)
(-0.0150527 0.0771355 0)
(-0.0379732 0.110155 0)
(-0.0655964 0.128307 0)
(-0.0939522 0.132777 0)
(-0.1206 0.125479 0)
(-0.143827 0.108586 0)
(-0.162496 0.0842602 0)
(-0.175894 0.05453 0)
(-0.183569 0.0212908 0)
(-0.00320474 0.0380268 0)
(-0.0174484 0.0972196 0)
(-0.0432927 0.136918 0)
(-0.0736657 0.157519 0)
(-0.104018 0.161269 0)
(-0.131833 0.151086 0)
(-0.155569 0.129941 0)
(-0.174369 0.100549 0)
(-0.187814 0.0652704 0)
(-0.195682 0.0261672 0)
(-0.00384865 0.0477971 0)
(-0.0202694 0.120024 0)
(-0.0491001 0.166477 0)
(-0.0817711 0.188829 0)
(-0.113163 0.190908 0)
(-0.140874 0.177005 0)
(-0.163758 0.151085 0)
(-0.181445 0.116474 0)
(-0.193974 0.0758216 0)
(-0.201472 0.0312497 0)
(-0.00473747 0.0592629 0)
(-0.0237578 0.1458 0)
(-0.0555352 0.198546 0)
(-0.0896316 0.22132 0)
(-0.120479 0.220303 0)
(-0.146123 0.201627 0)
(-0.166153 0.170447 0)
(-0.180947 0.13071 0)
(-0.191187 0.085258 0)
(-0.197472 0.0361163 0)
(-0.00606984 0.0729634 0)
(-0.0283223 0.174843 0)
(-0.0627441 0.232487 0)
(-0.0966568 0.253413 0)
(-0.124424 0.247275 0)
(-0.145123 0.222582 0)
(-0.159531 0.185808 0)
(-0.169073 0.141426 0)
(-0.175235 0.0922879 0)
(-0.179178 0.0401138 0)
(-0.00821412 0.0898399 0)
(-0.0346008 0.207433 0)
(-0.0707031 0.266976 0)
(-0.101522 0.282466 0)
(-0.122291 0.268547 0)
(-0.134034 0.236573 0)
(-0.139276 0.194253 0)
(-0.140726 0.146305 0)
(-0.140735 0.0952894 0)
(-0.141011 0.0423633 0)
(-0.01179 0.111495 0)
(-0.0433834 0.243526 0)
(-0.0786068 0.299331 0)
(-0.101167 0.304183 0)
(-0.109136 0.279431 0)
(-0.106759 0.239335 0)
(-0.0987802 0.192319 0)
(-0.0892072 0.142766 0)
(-0.0810706 0.0925056 0)
(-0.0764248 0.0418644 0)
(-0.0175685 0.140582 0)
(-0.0548759 0.281861 0)
(-0.0830735 0.324224 0)
(-0.0885926 0.311807 0)
(-0.0758709 0.273682 0)
(-0.0536093 0.22597 0)
(-0.0287177 0.176545 0)
(-0.00597952 0.128525 0)
(0.011481 0.0824951 0)
(0.0217356 0.0377587 0)
(-0.025462 0.181686 0)
(-0.0658571 0.317617 0)
(-0.0735609 0.331059 0)
(-0.0485024 0.294965 0)
(-0.0062349 0.24369 0)
(0.0403162 0.191831 0)
(0.0835132 0.144533 0)
(0.119189 0.102548 0)
(0.145197 0.0648464 0)
(0.160449 0.0297581 0)
(-0.0296522 0.239183 0)
(-0.0608848 0.335708 0)
(-0.0220868 0.300352 0)
(0.050245 0.239892 0)
(0.127084 0.182656 0)
(0.196307 0.135076 0)
(0.253426 0.0971039 0)
(0.297155 0.0666082 0)
(0.327586 0.0411894 0)
(0.345143 0.018704 0)
(0.00808804 0.281877 0)
(0.0197776 0.294965 0)
(0.139008 0.210925 0)
(0.264305 0.14339 0)
(0.36408 0.097072 0)
(0.439923 0.0656538 0)
(0.496148 0.0441213 0)
(0.536142 0.0287917 0)
(0.562611 0.0171364 0)
(0.577408 0.00745929 0)
(0.299611 0.146098 0)
(0.396286 0.127508 0)
(0.557422 0.076085 0)
(0.674455 0.0437097 0)
(0.743801 0.0255524 0)
(0.787 0.0152204 0)
(0.815267 0.0091921 0)
(0.83368 0.0054937 0)
(0.845069 0.00301781 0)
(0.851032 0.00114687 0)
)
;

boundaryField
{
    movingWall
    {
        type            fixedValue;
        value           uniform (1 0 0);
    }
    fixedWalls
    {
        type            noSlip;
    }
    frontAndBack
    {
        type            empty;
    }
    procBoundary0to1
    {
        type            processor;
        value           nonuniform List<vector> 
20
(
(-0.0174188 -0.000142386 0)
(-0.0453663 -0.000795232 0)
(-0.0692528 -0.0020583 0)
(-0.0908826 -0.00371986 0)
(-0.11133 -0.00564783 0)
(-0.131169 -0.00773925 0)
(-0.150491 -0.00986978 0)
(-0.168855 -0.0118869 0)
(-0.185211 -0.0136118 0)
(-0.197784 -0.0148498 0)
(-0.203946 -0.0154127 0)
(-0.200087 -0.0151558 0)
(-0.181524 -0.0140251 0)
(-0.142513 -0.0121044 0)
(-0.0764418 -0.00964158 0)
(0.0236825 -0.00701875 0)
(0.164323 -0.00463834 0)
(0.35003 -0.00277376 0)
(0.581468 -0.0014821 0)
(0.852325 -0.000495122 0)
)
;
    }
}


// ************************************************************************* //
