/*--------------------------------*- C++ -*----------------------------------*\
| =========                 |                                                 |
| \\      /  F ield         | OpenFOAM: The Open Source CFD Toolbox           |
|  \\    /   O peration     | Version:  v1712                                 |
|   \\  /    A nd           | Web:      www.OpenFOAM.com                      |
|    \\/     M anipulation  |                                                 |
\*---------------------------------------------------------------------------*/
FoamFile
{
    version     2.0;
    format      ascii;
    class       volVectorField;
    location    "0.2";
    object      L;
}
// * * * * * * * * * * * * * * * * * * * * * * * * * * * * * * * * * * * * * //

dimensions      [0 1 -2 0 0 0 0];


internalField   nonuniform List<vector> 
200
(
(0.000916961 -0.111747 -0)
(0.00281518 -0.101011 -0)
(0.00409294 -0.0814355 -0)
(0.00446753 -0.0574348 -0)
(0.00391867 -0.0342114 -0)
(0.00272619 -0.0161312 -0)
(0.00138973 -0.00526215 -0)
(0.000411878 -0.000804311 -0)
(1.9118e-05 4.14964e-05 0)
(1.04093e-05 -1.06268e-05 0)
(0.00399569 -0.226686 -0)
(0.0120148 -0.207378 -0)
(0.0176956 -0.172251 -0)
(0.0199957 -0.128484 -0)
(0.0187569 -0.0844821 -0)
(0.0147734 -0.0474939 -0)
(0.00952132 -0.0216161 -0)
(0.00459534 -0.00705822 -0)
(0.00117813 -0.00112816 -0)
(-4.71711e-05 -8.83972e-06 0)
(0.00783039 -0.261738 -0)
(0.0235792 -0.243139 -0)
(0.0356458 -0.209018 -0)
(0.0422755 -0.165339 -0)
(0.0428413 -0.119082 -0)
(0.0378922 -0.0765875 -0)
(0.0289 -0.0422733 -0)
(0.0178852 -0.0182093 -0)
(0.00734483 -0.00469496 -0)
(0.000693965 -0.000348699 -0)
(0.0100048 -0.242562 -0)
(0.0307862 -0.230852 -0)
(0.0487394 -0.208589 -0)
(0.0621291 -0.178224 -0)
(0.0694978 -0.142557 -0)
(0.0696021 -0.10451 -0)
(0.0615694 -0.0672663 -0)
(0.0455988 -0.0346 -0)
(0.0244188 -0.0112699 -0)
(0.0051167 -0.00136694 -0)
(0.00900213 -0.175867 -0)
(0.0293184 -0.176168 -0)
(0.0509971 -0.175029 -0)
(0.0736447 -0.169756 -0)
(0.0948742 -0.156722 -0)
(0.109844 -0.133004 -0)
(0.112055 -0.0985777 -0)
(0.0959861 -0.0581226 -0)
(0.0614018 -0.0219797 -0)
(0.018027 -0.00333913 -0)
(0.00335745 -0.0563188 -0)
(0.014438 -0.0735016 -0)
(0.0355065 -0.103117 -0)
(0.0696939 -0.135979 -0)
(0.1142 -0.159739 -0)
(0.158728 -0.162645 -0)
(0.186723 -0.138567 -0)
(0.180656 -0.0914759 -0)
(0.130957 -0.0384057 -0)
(0.0460767 -0.0066045 -0)
(-0.00864405 0.130266 -0)
(-0.020474 0.0916332 -0)
(-0.00812245 0.0206789 -0)
(0.0385733 -0.0659415 -0)
(0.118118 -0.144737 -0)
(0.213269 -0.191274 -0)
(0.291649 -0.188923 -0)
(0.313953 -0.137889 -0)
(0.249948 -0.0627643 -0)
(0.0983147 -0.0117118 -0)
(-0.0288178 0.404076 -0)
(-0.084358 0.340607 -0)
(-0.0951136 0.217546 -0)
(-0.0385182 0.059109 -0)
(0.0891142 -0.0980257 -0)
(0.263486 -0.212105 -0)
(0.429616 -0.249489 -0)
(0.511977 -0.200914 -0)
(0.44043 -0.0981873 -0)
(0.187409 -0.0195728 -0)
(-0.058616 0.786394 -0)
(-0.188215 0.697682 -0)
(-0.246129 0.514129 -0)
(-0.189728 0.265728 -0)
(-0.00274384 0.00275694 -0)
(0.286808 -0.21115 -0)
(0.595101 -0.316343 -0)
(0.790343 -0.283876 -0)
(0.730825 -0.149017 -0)
(0.331555 -0.0316717 -0)
(-0.0982996 1.28975 -0)
(-0.343615 1.181 -0)
(-0.486137 0.935933 -0)
(-0.453392 0.585266 -0)
(-0.204044 0.189375 -0)
(0.240493 -0.164074 -0)
(0.765872 -0.378629 -0)
(1.15919 -0.388562 -0)
(1.15661 -0.22114 -0)
(0.55727 -0.0504399 -0)
(-0.145823 1.89946 -0)
(-0.559248 1.78445 -0)
(-0.8399 1.49189 -0)
(-0.875109 1.0437 -0)
(-0.580045 0.499632 -0)
(0.0527664 -0.0336186 -0)
(0.889747 -0.413745 -0)
(1.61284 -0.512508 -0)
(1.75937 -0.322363 -0)
(0.903649 -0.0800123 -0)
(-0.195789 2.5427 -0)
(-0.834972 2.44555 -0)
(-1.32201 2.14409 -0)
(-1.49725 1.63746 -0)
(-1.20983 0.963746 -0)
(-0.384211 0.228876 -0)
(0.865493 -0.381053 -0)
(2.10975 -0.643594 -0)
(2.58138 -0.462645 -0)
(1.42929 -0.127814 -0)
(-0.23921 3.04261 -0)
(-1.15352 2.99597 -0)
(-1.91996 2.75645 -0)
(-2.33616 2.28566 -0)
(-2.16639 1.56906 -0)
(-1.21128 0.668907 -0)
(0.519795 -0.216726 -0)
(2.53579 -0.749682 -0)
(3.64902 -0.65316 -0)
(2.22421 -0.207901 -0)
(-0.265079 3.05983 -0)
(-1.47195 3.09668 -0)
(-2.57162 3.02009 -0)
(-3.34397 2.74854 -0)
(-3.47043 2.18465 -0)
(-2.57152 1.28078 -0)
(-0.40831 0.159456 -0)
(2.64175 -0.760337 -0)
(4.9274 -0.900058 -0)
(3.42949 -0.347494 -0)
(-0.264332 2.03436 -0)
(-1.71781 2.17267 -0)
(-3.14537 2.36627 -0)
(-4.36061 2.50948 -0)
(-5.00984 2.42156 -0)
(-4.52248 1.88391 -0)
(-2.2399 0.789226 -0)
(1.9545 -0.543598 -0)
(6.20368 -1.17859 -0)
(5.26102 -0.596207 -0)
(-0.235082 -0.842814 0)
(-1.79795 -0.617584 0)
(-3.44154 -0.0975069 0)
(-5.08113 0.642985 -0)
(-6.4372 1.4123 -0)
(-6.85832 1.84817 -0)
(-5.20083 1.46667 -0)
(-0.289645 0.0745618 -0)
(6.81465 -1.35071 -0)
(8.01315 -1.02084 -0)
(-0.185178 -6.57795 0)
(-1.62646 -6.32173 0)
(-3.23988 -5.55988 0)
(-5.0882 -4.25978 0)
(-7.10527 -2.46058 0)
(-8.84108 -0.430547 0)
(-8.97661 1.10343 -0)
(-4.95584 0.986501 -0)
(5.10467 -1.00288 -0)
(11.9355 -1.59884 -0)
(-0.128637 -16.1793 0)
(-1.17664 -15.9884 0)
(-2.41918 -15.3125 0)
(-4.03128 -13.9851 0)
(-6.20948 -11.743 0)
(-9.02424 -8.33084 0)
(-11.8422 -3.88648 0)
(-11.8169 0.118348 -0)
(-2.20117 0.326477 -0)
(15.7862 -1.67879 -0)
(-0.0776227 -30.2619 0)
(-0.570895 -30.3067 0)
(-1.19066 -30.3746 0)
(-2.09614 -30.2957 0)
(-3.57039 -29.6673 0)
(-6.11312 -27.667 0)
(-10.4276 -22.7723 0)
(-16.4249 -13.1631 0)
(-17.269 -2.28131 0)
(8.23094 0.505664 0)
(-0.0283765 -48.4606 0)
(-0.128192 -49.161 0)
(-0.263299 -51.0421 0)
(-0.487692 -54.2722 0)
(-0.922985 -59.0737 0)
(-1.86939 -65.5647 0)
(-4.11136 -73.1693 0)
(-9.67263 -77.7368 0)
(-20.7122 -67.356 0)
(-20.8569 -43.0931 0)
)
;

boundaryField
{
    movingWall
    {
        type            calculated;
        value           nonuniform List<vector> 10((0 -59.2731 0) (0 -60.634 0) (0 -64.1237 0) (0 -70.3654 0) (0 -80.6054 0) (0 -97.228 0) (0 -125.446 0) (0 -175.278 0) (0 -241.35 0) (0 -248.739 0));
    }
    fixedWalls
    {
        type            calculated;
        value           uniform (0 -0 0);
    }
    frontAndBack
    {
        type            empty;
    }
    procBoundary1to0
    {
        type            processor;
        value           nonuniform List<vector> 
20
(
(-0.00116315 -0.11127 0)
(-0.00475031 -0.226183 0)
(-0.00907197 -0.261393 0)
(-0.0115808 -0.242143 0)
(-0.010604 -0.175199 0)
(-0.00408639 -0.0557454 0)
(0.0111961 0.129323 0)
(0.0401573 0.398443 0)
(0.0897791 0.770571 0)
(0.16902 1.25596 0)
(0.287626 1.83932 0)
(0.452928 2.45181 0)
(0.663707 2.92868 0)
(0.901049 2.95254 0)
(1.11867 1.98888 0)
(1.24002 -0.764532 0)
(1.17415 -6.36425 0)
(0.86454 -15.9506 0)
(0.391894 -30.2802 0)
(0.0659568 -48.858 0)
)
;
    }
}


// ************************************************************************* //
