/*--------------------------------*- C++ -*----------------------------------*\
| =========                 |                                                 |
| \\      /  F ield         | OpenFOAM: The Open Source CFD Toolbox           |
|  \\    /   O peration     | Version:  v1712                                 |
|   \\  /    A nd           | Web:      www.OpenFOAM.com                      |
|    \\/     M anipulation  |                                                 |
\*---------------------------------------------------------------------------*/
FoamFile
{
    version     2.0;
    format      ascii;
    class       volScalarField;
    location    "0.2";
    object      p;
}
// * * * * * * * * * * * * * * * * * * * * * * * * * * * * * * * * * * * * * //

dimensions      [0 2 -2 0 0 0 0];


internalField   nonuniform List<scalar> 
200
(
0.0432676
0.0588434
0.0725967
0.0833253
0.0900699
0.0922857
0.0900475
0.0842695
0.0769102
0.0710994
0.0417741
0.0544088
0.0656082
0.0744313
0.0801422
0.0823392
0.0811032
0.0770838
0.0713063
0.0653529
0.0407907
0.0518943
0.0617928
0.0696608
0.0748323
0.076905
0.0758709
0.072118
0.0658409
0.0575749
0.0400183
0.0506803
0.0602593
0.0679427
0.073031
0.0750309
0.0737976
0.0694908
0.0616415
0.0501463
0.0391127
0.0500979
0.0600772
0.068194
0.0736563
0.0758292
0.0744027
0.0693266
0.0595666
0.0445842
0.0378434
0.0499334
0.0610786
0.0703341
0.0767664
0.07955
0.0781742
0.0723717
0.0605817
0.0419389
0.0359416
0.0499768
0.0631449
0.0743783
0.0825554
0.086604
0.0857569
0.0794859
0.0656631
0.0431206
0.0330872
0.0499686
0.0661184
0.0803249
0.0912358
0.0974656
0.0979071
0.0916748
0.0759383
0.0491636
0.0289385
0.0496311
0.0698349
0.0881915
0.103084
0.112738
0.115587
0.11023
0.0928746
0.0614553
0.0231858
0.0487011
0.0741351
0.0980109
0.118434
0.133163
0.140025
0.136855
0.118479
0.0819733
0.015648
0.0469953
0.078897
0.109833
0.137662
0.159623
0.172763
0.173813
0.155555
0.113605
0.00641704
0.0445169
0.0840973
0.123744
0.161175
0.193123
0.215703
0.22411
0.208082
0.160661
-0.00396997
0.0415827
0.0898845
0.13987
0.189357
0.234725
0.271108
0.291695
0.281771
0.229799
-0.0143937
0.0389068
0.096596
0.158316
0.222411
0.285322
0.341429
0.381604
0.384939
0.331853
-0.0231707
0.0375177
0.104594
0.178876
0.259896
0.345002
0.428645
0.499726
0.529697
0.485407
-0.0283842
0.0383893
0.113846
0.200508
0.300008
0.412055
0.533056
0.651799
0.732792
0.722409
-0.028677
0.0417354
0.123301
0.220753
0.338958
0.482183
0.652022
0.841364
1.01529
1.09752
-0.0245389
0.0454963
0.128975
0.233106
0.367135
0.542706
0.771318
1.05934
1.40331
1.73016
-0.0192312
0.0428257
0.119251
0.218819
0.354846
0.548014
0.82642
1.2366
1.9117
2.92421
-0.0166166
0.0277009
0.0846487
0.16177
0.27245
0.442134
0.71825
1.22574
2.41106
4.84855
)
;

boundaryField
{
    movingWall
    {
        type            zeroGradient;
    }
    fixedWalls
    {
        type            zeroGradient;
    }
    frontAndBack
    {
        type            empty;
    }
    procBoundary1to0
    {
        type            processor;
        value           nonuniform List<scalar> 
20
(
0.0271752
0.0287373
0.0293748
0.0291211
0.0279761
0.0257076
0.0220071
0.0165175
0.00885968
-0.0012973
-0.0141136
-0.0294039
-0.0464277
-0.0637009
-0.0789418
-0.0893415
-0.0924245
-0.0871782
-0.0735597
-0.0534766
)
;
    }
}


// ************************************************************************* //
