/*--------------------------------*- C++ -*----------------------------------*\
| =========                 |                                                 |
| \\      /  F ield         | OpenFOAM: The Open Source CFD Toolbox           |
|  \\    /   O peration     | Version:  v1712                                 |
|   \\  /    A nd           | Web:      www.OpenFOAM.com                      |
|    \\/     M anipulation  |                                                 |
\*---------------------------------------------------------------------------*/
FoamFile
{
    version     2.0;
    format      ascii;
    class       surfaceScalarField;
    location    "0.2";
    object      phi;
}
// * * * * * * * * * * * * * * * * * * * * * * * * * * * * * * * * * * * * * //

dimensions      [0 3 -1 0 0 0 0];
oriented        oriented;


internalField   nonuniform List<scalar> 
370
(
-8.64007e-07
-2.13112e-08
-7.97103e-07
-6.69036e-08
-6.89842e-07
-1.07261e-07
-5.51784e-07
-1.38059e-07
-3.96813e-07
-1.54971e-07
-2.42675e-07
-1.54138e-07
-1.09706e-07
-1.32969e-07
-1.84184e-08
-9.12875e-08
1.56798e-08
-3.40984e-08
1.56796e-08
-2.25303e-06
-7.34214e-08
-2.09225e-06
-2.27685e-07
-1.83556e-06
-3.63943e-07
-1.50548e-06
-4.68146e-07
-1.13366e-06
-5.26786e-07
-7.59245e-07
-5.28555e-07
-4.25249e-07
-4.66966e-07
-1.72633e-07
-3.43904e-07
-3.07932e-08
-1.75939e-07
-1.51137e-08
-3.44219e-06
-1.48318e-07
-3.21097e-06
-4.58895e-07
-2.84098e-06
-7.33936e-07
-2.36288e-06
-9.46251e-07
-1.81961e-06
-1.07006e-06
-1.264e-06
-1.08416e-06
-7.54229e-07
-9.76733e-07
-3.46834e-07
-7.51299e-07
-8.73006e-08
-4.35472e-07
-1.02414e-07
-4.51847e-06
-2.39933e-07
-4.23108e-06
-7.46288e-07
-3.76791e-06
-1.19711e-06
-3.16442e-06
-1.54974e-06
-2.47093e-06
-1.76355e-06
-1.7504e-06
-1.8047e-06
-1.0741e-06
-1.65304e-06
-5.14935e-07
-1.31046e-06
-1.39257e-07
-8.1115e-07
-2.41672e-07
-5.53374e-06
-3.42642e-07
-5.2005e-06
-1.07953e-06
-4.65722e-06
-1.74039e-06
-3.94157e-06
-2.26539e-06
-3.10862e-06
-2.5965e-06
-2.22972e-06
-2.68359e-06
-1.38915e-06
-2.49361e-06
-6.78251e-07
-2.02135e-06
-1.87695e-07
-1.30171e-06
-4.29366e-07
-6.51629e-06
-4.50315e-07
-6.14691e-06
-1.44891e-06
-5.53486e-06
-2.35243e-06
-4.71751e-06
-3.08275e-06
-3.75235e-06
-3.56166e-06
-2.71767e-06
-3.71827e-06
-1.71102e-06
-3.50026e-06
-8.44401e-07
-2.88798e-06
-2.36102e-07
-1.91001e-06
-6.65468e-07
-7.47132e-06
-5.55725e-07
-7.0774e-06
-1.84283e-06
-6.41036e-06
-3.01948e-06
-5.50429e-06
-3.98881e-06
-4.41604e-06
-4.64992e-06
-3.22863e-06
-4.90568e-06
-2.05248e-06
-4.67641e-06
-1.02229e-06
-3.91816e-06
-2.88208e-07
-2.64409e-06
-9.53676e-07
-8.37849e-06
-6.5034e-07
-7.97552e-06
-2.2458e-06
-7.27334e-06
-3.72165e-06
-6.29891e-06
-4.96325e-06
-5.10384e-06
-5.84498e-06
-3.77192e-06
-6.2376e-06
-2.42449e-06
-6.02383e-06
-1.22054e-06
-5.12211e-06
-3.47646e-07
-3.51699e-06
-1.30132e-06
-9.18768e-06
-7.24596e-07
-8.79657e-06
-2.63691e-06
-8.08854e-06
-4.42968e-06
-7.07831e-06
-5.97347e-06
-5.80575e-06
-7.11754e-06
-4.34862e-06
-7.69473e-06
-2.83454e-06
-7.53792e-06
-1.44695e-06
-6.5097e-06
-4.18055e-07
-4.54588e-06
-1.71938e-06
-9.81307e-06
-7.68772e-07
-9.46104e-06
-2.98895e-06
-8.78879e-06
-5.10193e-06
-7.79271e-06
-6.96955e-06
-6.49197e-06
-8.41829e-06
-4.94778e-06
-9.23892e-06
-3.28498e-06
-9.20072e-06
-1.70861e-06
-8.08607e-06
-5.03565e-07
-5.75093e-06
-2.22294e-06
-1.0126e-05
-7.74548e-07
-9.84656e-06
-3.26843e-06
-9.26617e-06
-5.68232e-06
-8.35647e-06
-7.87925e-06
-7.10479e-06
-9.66997e-06
-5.54075e-06
-1.08029e-05
-3.77073e-06
-1.09707e-05
-2.01217e-06
-9.84463e-06
-6.09689e-07
-7.15341e-06
-2.83263e-06
-9.94812e-06
-7.37174e-07
-9.77939e-06
-3.43716e-06
-9.36158e-06
-6.10012e-06
-8.63619e-06
-8.60465e-06
-7.54682e-06
-1.07593e-05
-6.07188e-06
-1.22779e-05
-4.27445e-06
-1.27682e-05
-2.36373e-06
-1.17553e-05
-7.44801e-07
-8.77234e-06
-3.57743e-06
-9.04579e-06
-6.57911e-07
-9.02707e-06
-3.45589e-06
-8.85376e-06
-6.27343e-06
-8.43579e-06
-9.02262e-06
-7.66366e-06
-1.15315e-05
-6.44253e-06
-1.3499e-05
-4.75658e-06
-1.44541e-05
-2.76691e-06
-1.3745e-05
-9.2248e-07
-1.06168e-05
-4.49991e-06
-7.13037e-06
-5.45867e-07
-7.2954e-06
-3.29086e-06
-7.45009e-06
-6.11874e-06
-7.4791e-06
-8.9936e-06
-7.21889e-06
-1.17917e-05
-6.48344e-06
-1.42345e-05
-5.13386e-06
-1.58037e-05
-3.2152e-06
-1.56637e-05
-1.16445e-06
-1.26675e-05
-5.66436e-06
-3.8671e-06
-4.17814e-07
-4.23448e-06
-2.92348e-06
-4.78372e-06
-5.5695e-06
-5.39245e-06
-8.38487e-06
-5.85959e-06
-1.13246e-05
-5.90736e-06
-1.41867e-05
-5.23332e-06
-1.64777e-05
-3.66652e-06
-1.72305e-05
-1.50015e-06
-1.48339e-05
-7.16451e-06
1.10007e-06
-2.94313e-07
5.39192e-07
-2.3626e-06
-4.24602e-07
-4.60571e-06
-1.69399e-06
-7.11549e-06
-3.07353e-06
-9.945e-06
-4.23164e-06
-1.30286e-05
-4.69617e-06
-1.60132e-05
-3.96744e-06
-1.79592e-05
-1.945e-06
-1.68563e-05
-9.10951e-06
8.10208e-06
-1.91677e-07
7.39733e-06
-1.65785e-06
6.08533e-06
-3.2937e-06
4.19789e-06
-5.22804e-06
1.85312e-06
-7.60024e-06
-6.62467e-07
-1.0513e-05
-2.79266e-06
-1.3883e-05
-3.66233e-06
-1.70895e-05
-2.41161e-06
-1.81071e-05
-1.15211e-05
1.73749e-05
-1.13178e-07
1.66291e-05
-9.1207e-07
1.5166e-05
-1.83053e-06
1.29225e-05
-2.98456e-06
9.86093e-06
-4.53869e-06
6.06137e-06
-6.71343e-06
1.91196e-06
-9.73361e-06
-1.55981e-06
-1.36178e-05
-2.45839e-06
-1.72085e-05
-1.39795e-05
2.89613e-05
-4.89733e-08
2.83379e-05
-2.88674e-07
2.70811e-05
-5.73702e-07
2.50544e-05
-9.57908e-07
2.20512e-05
-1.53547e-06
1.78151e-05
-2.47736e-06
1.21722e-05
-4.09063e-06
5.47762e-06
-6.9232e-06
-1.29197e-07
-1.16017e-05
-1.41087e-05
4.25573e-05
4.22687e-05
4.1695e-05
4.0737e-05
3.92016e-05
3.67242e-05
3.26336e-05
2.57104e-05
1.41087e-05
)
;

boundaryField
{
    movingWall
    {
        type            calculated;
        value           uniform 0;
    }
    fixedWalls
    {
        type            calculated;
        value           uniform 0;
    }
    frontAndBack
    {
        type            empty;
        value           nonuniform 0();
    }
    procBoundary1to0
    {
        type            processor;
        value           nonuniform List<scalar> 
20
(
8.85317e-07
2.30514e-06
3.51708e-06
4.61009e-06
5.63645e-06
6.62397e-06
7.57674e-06
8.4731e-06
9.26193e-06
9.85725e-06
1.01318e-05
9.91074e-06
8.96653e-06
7.01833e-06
3.73904e-06
-1.22357e-06
-8.20472e-06
-1.74534e-05
-2.90255e-05
-4.26063e-05
)
;
    }
}


// ************************************************************************* //
