/*--------------------------------*- C++ -*----------------------------------*\
| =========                 |                                                 |
| \\      /  F ield         | OpenFOAM: The Open Source CFD Toolbox           |
|  \\    /   O peration     | Version:  v1712                                 |
|   \\  /    A nd           | Web:      www.OpenFOAM.com                      |
|    \\/     M anipulation  |                                                 |
\*---------------------------------------------------------------------------*/
FoamFile
{
    version     2.0;
    format      ascii;
    class       volVectorField;
    location    "0.2";
    object      U;
}
// * * * * * * * * * * * * * * * * * * * * * * * * * * * * * * * * * * * * * //

dimensions      [0 1 -1 0 0 0 0];


internalField   nonuniform List<vector> 
200
(
(-0.0176958 -0.000145205 0)
(-0.0167992 -0.000468193 0)
(-0.0150249 -0.000755146 0)
(-0.0125209 -0.000973926 0)
(-0.00952326 -0.00109082 0)
(-0.00635299 -0.00107366 0)
(-0.00339969 -0.00089785 0)
(-0.00108625 -0.000556254 0)
(0.000196226 -9.0404e-05 0)
(0.000267721 0.00026224 0)
(-0.0461118 -0.000812803 0)
(-0.0439447 -0.00254603 0)
(-0.0396863 -0.00407706 0)
(-0.0336902 -0.00524313 0)
(-0.0265037 -0.00588441 0)
(-0.0188478 -0.00586277 0)
(-0.0115626 -0.00509301 0)
(-0.00551141 -0.00358827 0)
(-0.00149262 -0.00155873 0)
(-4.25904e-05 0.000227255 0)
(-0.0703732 -0.00210538 0)
(-0.0672584 -0.00652264 0)
(-0.061129 -0.010425 0)
(-0.0524686 -0.0134158 0)
(-0.0420213 -0.0151177 0)
(-0.0307624 -0.01522 0)
(-0.0198217 -0.0135511 0)
(-0.0103596 -0.0101753 0)
(-0.00354714 -0.00554919 0)
(-0.000476643 -0.000948597 0)
(-0.0922687 -0.00380583 0)
(-0.0884172 -0.0117914 0)
(-0.0807752 -0.0188743 0)
(-0.0698974 -0.0243666 0)
(-0.0566487 -0.0276169 0)
(-0.0421796 -0.0280911 0)
(-0.0278465 -0.0254882 0)
(-0.0150881 -0.0198844 0)
(-0.00550289 -0.0119233 0)
(-0.000861217 -0.00322369 0)
(-0.112859 -0.00577709 0)
(-0.108438 -0.0180468 0)
(-0.0995289 -0.0289995 0)
(-0.0867105 -0.0376179 0)
(-0.0709124 -0.0429285 0)
(-0.0534128 -0.0441124 0)
(-0.0357728 -0.0406638 0)
(-0.0197284 -0.0325806 0)
(-0.00736794 -0.020583 0)
(-0.00120318 -0.00649565 0)
(-0.13271 -0.00791179 0)
(-0.127885 -0.0251212 0)
(-0.117932 -0.0406086 0)
(-0.103404 -0.0529988 0)
(-0.0852447 -0.0609435 0)
(-0.0648172 -0.0632571 0)
(-0.043873 -0.0591209 0)
(-0.0244705 -0.0483273 0)
(-0.00925145 -0.0315462 0)
(-0.0015372 -0.0107245 0)
(-0.151912 -0.0100808 0)
(-0.14688 -0.0328188 0)
(-0.136149 -0.0534789 0)
(-0.120195 -0.0703109 0)
(-0.0999097 -0.0815363 0)
(-0.0766839 -0.0855033 0)
(-0.0524282 -0.0809366 0)
(-0.0295379 -0.0672547 0)
(-0.0112808 -0.0449244 0)
(-0.00189954 -0.0159459 0)
(-0.170032 -0.0121269 0)
(-0.165042 -0.040877 0)
(-0.153903 -0.0672899 0)
(-0.136946 -0.0892425 0)
(-0.114923 -0.104478 0)
(-0.089161 -0.110762 0)
(-0.0616604 -0.10618 0)
(-0.0351424 -0.0895524 0)
(-0.0135835 -0.0609309 0)
(-0.00232587 -0.0222704 0)
(-0.186037 -0.0138674 0)
(-0.181402 -0.0489386 0)
(-0.170376 -0.0815662 0)
(-0.153064 -0.109289 0)
(-0.129957 -0.129343 0)
(-0.102175 -0.138789 0)
(-0.0716821 -0.13485 0)
(-0.0414626 -0.115438 0)
(-0.0162863 -0.079874 0)
(-0.00285435 -0.0298813 0)
(-0.198178 -0.0151051 0)
(-0.194275 -0.0565265 0)
(-0.184074 -0.0956133 0)
(-0.167359 -0.129653 0)
(-0.144209 -0.155383 0)
(-0.115334 -0.169055 0)
(-0.0824422 -0.166763 0)
(-0.0486339 -0.145091 0)
(-0.0195278 -0.102137 0)
(-0.00353338 -0.0390381 0)
(-0.203863 -0.0156515 0)
(-0.201115 -0.0630317 0)
(-0.192653 -0.108462 0)
(-0.17786 -0.149134 0)
(-0.156226 -0.181374 0)
(-0.127781 -0.200564 0)
(-0.0936449 -0.201385 0)
(-0.0567333 -0.17854 0)
(-0.0234799 -0.128149 0)
(-0.00443553 -0.050095 0)
(-0.199521 -0.015364 0)
(-0.198354 -0.0677254 0)
(-0.192733 -0.11884 0)
(-0.181588 -0.166044 0)
(-0.163656 -0.205449 0)
(-0.137974 -0.23162 0)
(-0.104601 -0.237586 0)
(-0.0657362 -0.215492 0)
(-0.0283787 -0.158344 0)
(-0.00568224 -0.063543 0)
(-0.180516 -0.0141929 0)
(-0.181295 -0.0698056 0)
(-0.179721 -0.125186 0)
(-0.174293 -0.178149 0)
(-0.162913 -0.224937 0)
(-0.143329 -0.259551 0)
(-0.113946 -0.273294 0)
(-0.0753979 -0.255036 0)
(-0.0345581 -0.193069 0)
(-0.00748661 -0.0800957 0)
(-0.141148 -0.0122287 0)
(-0.144092 -0.0684942 0)
(-0.147702 -0.125774 0)
(-0.150198 -0.182743 0)
(-0.148744 -0.236294 0)
(-0.139661 -0.280415 0)
(-0.119106 -0.304995 0)
(-0.0849425 -0.295133 0)
(-0.042443 -0.232359 0)
(-0.0102165 -0.100829 0)
(-0.074845 -0.00972576 0)
(-0.0799309 -0.0632011 0)
(-0.0894995 -0.118974 0)
(-0.10182 -0.176936 0)
(-0.113712 -0.235261 0)
(-0.120325 -0.288857 0)
(-0.115276 -0.327171 0)
(-0.0922739 -0.331773 0)
(-0.0523186 -0.275389 0)
(-0.0144309 -0.127341 0)
(0.0253566 -0.00707154 0)
(0.0184672 -0.0537514 0)
(0.00294296 -0.10374 0)
(-0.020029 -0.158305 0)
(-0.0477122 -0.217485 0)
(-0.0750047 -0.278342 0)
(-0.0935603 -0.331773 0)
(-0.0920714 -0.357667 0)
(-0.0632836 -0.319283 0)
(-0.0206342 -0.16197 0)
(0.165903 -0.0046704 0)
(0.157899 -0.0406239 0)
(0.137698 -0.080239 0)
(0.105411 -0.125908 0)
(0.062238 -0.179715 0)
(0.0117873 -0.242009 0)
(-0.0378425 -0.307866 0)
(-0.0716866 -0.360133 0)
(-0.0700584 -0.356602 0)
(-0.0279128 -0.208373 0)
(0.351346 -0.0027935 0)
(0.343273 -0.0252626 0)
(0.321442 -0.0507837 0)
(0.284619 -0.0820428 0)
(0.231553 -0.12244 0)
(0.162166 -0.175663 0)
(0.0798906 -0.243425 0)
(-0.00319553 -0.319131 0)
(-0.0546718 -0.368609 0)
(-0.0284598 -0.267617 0)
(0.582361 -0.0014938 0)
(0.575676 -0.0108442 0)
(0.557291 -0.0218455 0)
(0.52512 -0.036333 0)
(0.475765 -0.0572574 0)
(0.404528 -0.0893818 0)
(0.30517 -0.139739 0)
(0.173413 -0.216384 0)
(0.0411709 -0.311654 0)
(0.0184301 -0.299995 0)
(0.852659 -0.000499291 0)
(0.849376 -0.00221486 0)
(0.840994 -0.00433827 0)
(0.826136 -0.00742373 0)
(0.802074 -0.0125319 0)
(0.763618 -0.0217725 0)
(0.699106 -0.0392826 0)
(0.583952 -0.0726599 0)
(0.415827 -0.127868 0)
(0.30882 -0.149468 0)
)
;

boundaryField
{
    movingWall
    {
        type            fixedValue;
        value           uniform (1 0 0);
    }
    fixedWalls
    {
        type            noSlip;
    }
    frontAndBack
    {
        type            empty;
    }
    procBoundary1to0
    {
        type            processor;
        value           nonuniform List<vector> 
20
(
(-0.0176519 0.000184521 0)
(-0.0460294 0.000966697 0)
(-0.070255 0.00243826 0)
(-0.0920838 0.00440399 0)
(-0.112549 0.0068121 0)
(-0.132198 0.00969067 0)
(-0.151104 0.0130819 0)
(-0.168837 0.0170164 0)
(-0.184386 0.021483 0)
(-0.19606 0.0263851 0)
(-0.201367 0.0314896 0)
(-0.196883 0.0363716 0)
(-0.17815 0.0403742 0)
(-0.139634 0.0426148 0)
(-0.0748275 0.0420907 0)
(0.023398 0.0379434 0)
(0.16201 0.029889 0)
(0.346437 0.0187772 0)
(0.578286 0.00748436 0)
(0.851364 0.00114932 0)
)
;
    }
}


// ************************************************************************* //
