/*--------------------------------*- C++ -*----------------------------------*\
| =========                 |                                                 |
| \\      /  F ield         | OpenFOAM: The Open Source CFD Toolbox           |
|  \\    /   O peration     | Version:  v1712                                 |
|   \\  /    A nd           | Web:      www.OpenFOAM.com                      |
|    \\/     M anipulation  |                                                 |
\*---------------------------------------------------------------------------*/
FoamFile
{
    version     2.0;
    format      ascii;
    class       volVectorField;
    location    "0.2";
    object      LPrime;
}
// * * * * * * * * * * * * * * * * * * * * * * * * * * * * * * * * * * * * * //

dimensions      [0 1 -2 0 0 0 0];


internalField   nonuniform List<vector> 
200
(
(-7.87076e-06 -7.97101e-06 0)
(-2.5477e-05 3.22248e-05 0)
(-0.000431219 -0.000898932 0)
(-0.00138661 -0.00545432 0)
(-0.00265874 -0.0162149 0)
(-0.003796 -0.0338554 0)
(-0.00436136 -0.0564734 0)
(-0.00409151 -0.0800857 0)
(-0.0029585 -0.0998156 0)
(-0.00116315 -0.11127 0)
(3.81684e-05 -1.74561e-05 -0)
(-0.00125552 -0.00122987 0)
(-0.00462664 -0.00728101 0)
(-0.00937464 -0.0218193 0)
(-0.0144098 -0.0473997 0)
(-0.0182903 -0.0838278 0)
(-0.0196604 -0.127232 0)
(-0.0177196 -0.170703 0)
(-0.0124743 -0.206087 0)
(-0.00475031 -0.226183 0)
(-0.000837521 -0.000405479 0)
(-0.00757243 -0.00489904 0)
(-0.0176522 -0.0182807 0)
(-0.0280237 -0.0417841 0)
(-0.0366227 -0.075381 0)
(-0.041643 -0.117366 0)
(-0.041588 -0.163516 0)
(-0.035715 -0.207476 0)
(-0.0243777 -0.242135 0)
(-0.00907197 -0.261393 0)
(-0.00571911 -0.00152542 0)
(-0.0247447 -0.0115239 0)
(-0.0441744 -0.0339299 0)
(-0.058458 -0.0647658 0)
(-0.0659568 -0.100345 0)
(-0.0665699 -0.137811 0)
(-0.0606168 -0.17412 0)
(-0.0486861 -0.205814 0)
(-0.0318135 -0.229416 0)
(-0.0115808 -0.242143 0)
(-0.0195903 -0.00364274 0)
(-0.0612553 -0.0220309 0)
(-0.0911419 -0.0555236 0)
(-0.103656 -0.0918515 0)
(-0.101071 -0.123146 0)
(-0.0883993 -0.146368 0)
(-0.0704032 -0.161414 0)
(-0.0504307 -0.169805 0)
(-0.030306 -0.173696 0)
(-0.010604 -0.175199 0)
(-0.0490245 -0.00702688 0)
(-0.128417 -0.0375428 0)
(-0.167915 -0.0847805 0)
(-0.167902 -0.124342 0)
(-0.140854 -0.143867 0)
(-0.102006 -0.14166 0)
(-0.0638814 -0.122756 0)
(-0.0340248 -0.0958879 0)
(-0.0147851 -0.0707424 0)
(-0.00408639 -0.0557454 0)
(-0.102306 -0.012047 0)
(-0.240262 -0.0594188 0)
(-0.285454 -0.123493 0)
(-0.255156 -0.162938 0)
(-0.182151 -0.160863 0)
(-0.0991807 -0.119174 0)
(-0.0306104 -0.050868 0)
(0.0105097 0.0255748 0)
(0.0221044 0.0910076 0)
(0.0111961 0.129323 0)
(-0.18996 -0.0192548 0)
(-0.41371 -0.0893767 0)
(-0.455421 -0.173364 0)
(-0.367247 -0.207125 0)
(-0.217577 -0.169933 0)
(-0.0665711 -0.0707322 0)
(0.0448834 0.0658783 0)
(0.0974166 0.208919 0)
(0.0908405 0.32806 0)
(0.0401573 0.398443 0)
(-0.325633 -0.029492 0)
(-0.668848 -0.129651 0)
(-0.688756 -0.235796 0)
(-0.501179 -0.254404 0)
(-0.232599 -0.163382 0)
(0.0166536 0.0158865 0)
(0.184566 0.242625 0)
(0.245941 0.47078 0)
(0.20541 0.657997 0)
(0.0897791 0.770571 0)
(-0.527451 -0.0441176 0)
(-1.02908 -0.18329 0)
(-0.992981 -0.311513 0)
(-0.644782 -0.29909 0)
(-0.201439 -0.128834 0)
(0.18138 0.156898 0)
(0.417741 0.495742 0)
(0.480006 0.825144 0)
(0.382699 1.09204 0)
(0.16902 1.25596 0)
(-0.820405 -0.0655431 0)
(-1.52081 -0.254762 0)
(-1.36692 -0.399763 0)
(-0.76942 -0.330252 0)
(-0.0813685 -0.0477864 0)
(0.470932 0.371198 0)
(0.780319 0.837409 0)
(0.825719 1.2735 0)
(0.639915 1.62121 0)
(0.287626 1.83932 0)
(-1.241 -0.0984673 0)
(-2.17161 -0.351048 0)
(-1.78997 -0.496412 0)
(-0.817646 -0.328109 0)
(0.194902 0.105543 0)
(0.942077 0.675639 0)
(1.31073 1.26378 0)
(1.305 1.78638 0)
(0.988701 2.19249 0)
(0.452928 2.45181 0)
(-1.84679 -0.152654 0)
(-3.00364 -0.483024 0)
(-2.19994 -0.58891 0)
(-0.682772 -0.258063 0)
(0.727635 0.362443 0)
(1.66137 1.07121 0)
(2.03915 1.72986 0)
(1.92302 2.27004 0)
(1.42454 2.67023 0)
(0.663707 2.92868 0)
(-2.735 -0.248864 0)
(-4.01135 -0.665081 0)
(-2.44719 -0.643387 0)
(-0.178474 -0.0635913 0)
(1.65285 0.744993 0)
(2.68868 1.50526 0)
(2.9644 2.09685 0)
(2.64691 2.50831 0)
(1.91101 2.77819 0)
(0.901049 2.95254 0)
(-4.0738 -0.429467 0)
(-5.09031 -0.902759 0)
(-2.20487 -0.575496 0)
(0.992219 0.327342 0)
(3.11779 1.20489 0)
(4.03056 1.77353 0)
(4.01062 2.02476 0)
(3.37551 2.06516 0)
(2.36188 2.01968 0)
(1.11867 1.98888 0)
(-6.13929 -0.766013 0)
(-5.82784 -1.1313 0)
(-0.823166 -0.209896 0)
(3.21278 0.905832 0)
(5.17265 1.41609 0)
(5.53542 1.28456 0)
(4.96031 0.769322 0)
(3.9082 0.137873 0)
(2.63122 -0.414331 0)
(1.24002 -0.764532 0)
(-9.29584 -1.30197 0)
(-4.9482 -1.02427 0)
(2.75773 0.610379 0)
(6.66943 1.08578 0)
(7.46543 0.171097 0)
(6.70921 -1.43673 0)
(5.38384 -3.14128 0)
(3.94014 -4.61133 0)
(2.53238 -5.7024 0)
(1.17415 -6.36425 0)
(-12.9492 -1.60523 0)
(0.81382 0.147469 0)
(9.25683 0.676063 0)
(10.3277 -2.17346 0)
(8.68416 -6.05518 0)
(6.56206 -9.54823 0)
(4.68106 -12.2233 0)
(3.15775 -14.0879 0)
(1.92216 -15.2834 0)
(0.86454 -15.9506 0)
(-6.97835 0.200125 0)
(15.5747 -1.04455 0)
(15.4191 -10.1637 0)
(10.5847 -19.51 0)
(6.74478 -25.2876 0)
(4.23002 -28.3195 0)
(2.6455 -29.7072 0)
(1.62548 -30.2123 0)
(0.9252 -30.3114 0)
(0.391894 -30.2802 0)
(20.7262 -42.5054 0)
(21.0883 -65.5413 0)
(10.5558 -77.3306 0)
(4.86013 -74.9743 0)
(2.35319 -68.455 0)
(1.20235 -62.0949 0)
(0.642551 -56.8817 0)
(0.350036 -52.9875 0)
(0.180274 -50.347 0)
(0.0659568 -48.858 0)
)
;

boundaryField
{
    movingWall
    {
        type            calculated;
        value           nonuniform List<vector> 10((0 147.201 0) (0 151.509 0) (0 214.59 0) (0 264.743 0) (0 294.706 0) (0 313.224 0) (0 325.219 0) (0 332.961 0) (0 337.715 0) (0 340.193 0));
    }
    fixedWalls
    {
        type            calculated;
        value           uniform (0 -0 0);
    }
    frontAndBack
    {
        type            empty;
    }
    procBoundary0to1
    {
        type            processor;
        value           nonuniform List<vector> 
20
(
(0.000916961 -0.111747 -0)
(0.00399569 -0.226686 -0)
(0.00783039 -0.261738 -0)
(0.0100048 -0.242562 -0)
(0.00900213 -0.175867 -0)
(0.00335745 -0.0563188 -0)
(-0.00864405 0.130266 -0)
(-0.0288178 0.404076 -0)
(-0.058616 0.786394 -0)
(-0.0982996 1.28975 -0)
(-0.145823 1.89946 -0)
(-0.195789 2.5427 -0)
(-0.23921 3.04261 -0)
(-0.265079 3.05983 -0)
(-0.264332 2.03436 -0)
(-0.235082 -0.842814 0)
(-0.185178 -6.57795 0)
(-0.128637 -16.1793 0)
(-0.0776227 -30.2619 0)
(-0.0283765 -48.4606 0)
)
;
    }
}


// ************************************************************************* //
