/*--------------------------------*- C++ -*----------------------------------*\
| =========                 |                                                 |
| \\      /  F ield         | OpenFOAM: The Open Source CFD Toolbox           |
|  \\    /   O peration     | Version:  v1712                                 |
|   \\  /    A nd           | Web:      www.OpenFOAM.com                      |
|    \\/     M anipulation  |                                                 |
\*---------------------------------------------------------------------------*/
FoamFile
{
    version     2.0;
    format      ascii;
    class       volScalarField;
    location    "0.2";
    object      p;
}
// * * * * * * * * * * * * * * * * * * * * * * * * * * * * * * * * * * * * * //

dimensions      [0 2 -2 0 0 0 0];


internalField   nonuniform List<scalar> 
200
(
4.38214e-06
-0.00581757
-0.0129484
-0.0183944
-0.0204072
-0.0182105
-0.0117445
-0.00145433
0.0118655
0.0271752
0.00578176
-0.00021223
-0.00579234
-0.00952592
-0.0105783
-0.0084091
-0.00294444
0.0055005
0.0163292
0.0287373
0.0133341
0.00503836
-0.000985607
-0.00440904
-0.00525511
-0.00324308
0.00162546
0.00905221
0.0185275
0.0293748
0.0201367
0.00869972
0.00123461
-0.00265565
-0.00370561
-0.00186574
0.00275333
0.00980852
0.0188056
0.0291211
0.0244984
0.00977673
0.000598511
-0.00397414
-0.0052859
-0.00348792
0.00119679
0.00835877
0.0174878
0.0279761
0.0251755
0.00715503
-0.00379197
-0.00904328
-0.0104948
-0.00847958
-0.0033337
0.00445486
0.0143406
0.0257076
0.0210949
-0.000254122
-0.0129217
-0.018693
-0.0200103
-0.0173915
-0.0112932
-0.00229217
0.00901987
0.0220071
0.0111505
-0.013605
-0.0278581
-0.0338344
-0.0345809
-0.0308322
-0.0231849
-0.0123149
0.00113707
0.0165175
-0.0059512
-0.0342469
-0.0498481
-0.0555244
-0.0550637
-0.0494858
-0.0395623
-0.0260799
-0.00972181
0.00885968
-0.0318318
-0.0638496
-0.0803894
-0.0849784
-0.0823897
-0.074046
-0.0609464
-0.0440001
-0.0239132
-0.0012973
-0.0686325
-0.10457
-0.121312
-0.123557
-0.117481
-0.105091
-0.0876808
-0.0662862
-0.0415961
-0.0141136
-0.119359
-0.159317
-0.174877
-0.17272
-0.161111
-0.142891
-0.119719
-0.0927357
-0.0625347
-0.0294039
-0.188578
-0.232197
-0.243897
-0.233908
-0.213655
-0.187115
-0.156332
-0.122459
-0.0858543
-0.0464277
-0.28392
-0.329257
-0.331788
-0.308239
-0.274669
-0.2364
-0.195724
-0.153568
-0.109797
-0.0637009
-0.419263
-0.459623
-0.442307
-0.395752
-0.342091
-0.287701
-0.234577
-0.182889
-0.131567
-0.0789418
-0.620479
-0.636698
-0.578636
-0.494156
-0.411205
-0.335623
-0.267744
-0.20594
-0.147496
-0.0893415
-0.935876
-0.878473
-0.741705
-0.597915
-0.474361
-0.372628
-0.288836
-0.217728
-0.153916
-0.0924245
-1.47638
-1.20659
-0.920471
-0.691359
-0.517278
-0.387517
-0.290032
-0.213305
-0.148089
-0.0871782
-2.53961
-1.63052
-1.04441
-0.710934
-0.495728
-0.35207
-0.254506
-0.183555
-0.126137
-0.0735597
-4.36663
-2.0446
-0.973517
-0.56316
-0.357828
-0.240129
-0.170099
-0.123759
-0.0874525
-0.0534766
)
;

boundaryField
{
    movingWall
    {
        type            zeroGradient;
    }
    fixedWalls
    {
        type            zeroGradient;
    }
    frontAndBack
    {
        type            empty;
    }
    procBoundary0to1
    {
        type            processor;
        value           nonuniform List<scalar> 
20
(
0.0432676
0.0417741
0.0407907
0.0400183
0.0391127
0.0378434
0.0359416
0.0330872
0.0289385
0.0231858
0.015648
0.00641704
-0.00396997
-0.0143937
-0.0231707
-0.0283842
-0.028677
-0.0245389
-0.0192312
-0.0166166
)
;
    }
}


// ************************************************************************* //
