/*--------------------------------*- C++ -*----------------------------------*\
| =========                 |                                                 |
| \\      /  F ield         | OpenFOAM: The Open Source CFD Toolbox           |
|  \\    /   O peration     | Version:  v1712                                 |
|   \\  /    A nd           | Web:      www.OpenFOAM.com                      |
|    \\/     M anipulation  |                                                 |
\*---------------------------------------------------------------------------*/
FoamFile
{
    version     2.0;
    format      ascii;
    class       surfaceScalarField;
    location    "0.2";
    object      phi;
}
// * * * * * * * * * * * * * * * * * * * * * * * * * * * * * * * * * * * * * //

dimensions      [0 3 -1 0 0 0 0];
oriented        oriented;


internalField   nonuniform List<scalar> 
370
(
1.42228e-08
-1.42568e-08
-2.22108e-08
3.6434e-08
-1.14235e-07
9.20248e-08
-2.4541e-07
1.31174e-07
-3.95957e-07
1.50547e-07
-5.47168e-07
1.5121e-07
-6.82942e-07
1.35773e-07
-7.90374e-07
1.07432e-07
-8.59893e-07
6.952e-08
2.54274e-08
-3.42001e-08
1.99419e-08
-1.803e-07
1.82531e-07
-4.33812e-07
3.45537e-07
-7.64124e-07
4.61487e-07
-1.13176e-06
5.1818e-07
-1.49665e-06
5.161e-07
-1.82261e-06
4.61741e-07
-2.07971e-06
3.64533e-07
-2.24539e-06
2.352e-07
8.51757e-08
-9.21857e-08
1.12126e-07
-3.56837e-07
4.47183e-07
-7.64226e-07
7.52925e-07
-1.26794e-06
9.65205e-07
-1.81393e-06
1.06417e-06
-2.34806e-06
1.05023e-06
-2.82126e-06
9.3494e-07
-3.19262e-06
7.35898e-07
-3.4312e-06
4.7378e-07
1.71057e-07
-1.45142e-07
2.57269e-07
-5.25227e-07
8.27268e-07
-1.08117e-06
1.30886e-06
-1.74677e-06
1.63081e-06
-2.45331e-06
1.7707e-06
-3.13508e-06
1.732e-06
-3.73376e-06
1.53362e-06
-4.2012e-06
1.20334e-06
-4.50111e-06
7.73686e-07
2.80039e-07
-1.93524e-07
4.50794e-07
-6.84718e-07
1.31846e-06
-1.38507e-06
2.00922e-06
-2.20638e-06
2.45212e-06
-3.06429e-06
2.62861e-06
-3.8823e-06
2.55001e-06
-4.59477e-06
2.24609e-06
-5.14866e-06
1.75722e-06
-5.5044e-06
1.12944e-06
4.12087e-07
-2.3985e-07
6.90643e-07
-8.40052e-07
1.91866e-06
-1.68272e-06
2.85188e-06
-2.65617e-06
3.42558e-06
-3.65963e-06
3.63207e-06
-4.60627e-06
3.49665e-06
-5.4246e-06
3.06442e-06
-6.05862e-06
2.39125e-06
-6.4673e-06
1.53811e-06
5.68756e-07
-2.86661e-07
9.77303e-07
-9.96812e-07
2.62881e-06
-1.98156e-06
3.83662e-06
-3.10414e-06
4.54816e-06
-4.24686e-06
4.77479e-06
-5.31346e-06
4.56324e-06
-6.22853e-06
3.97949e-06
-6.93541e-06
3.09813e-06
-7.39363e-06
1.99632e-06
7.51864e-07
-3.36264e-07
1.31357e-06
-1.16015e-06
3.4527e-06
-2.2876e-06
4.96407e-06
-3.55435e-06
5.81492e-06
-4.82575e-06
6.04619e-06
-5.99799e-06
5.73548e-06
-6.99477e-06
4.97628e-06
-7.76212e-06
3.86548e-06
-8.263e-06
2.4972e-06
9.61969e-07
-3.90916e-07
1.70448e-06
-1.33475e-06
4.39654e-06
-2.60472e-06
6.23404e-06
-4.00554e-06
7.21574e-06
-5.38626e-06
7.42692e-06
-6.63906e-06
6.98827e-06
-7.69162e-06
6.02884e-06
-8.49756e-06
4.67142e-06
-9.02745e-06
3.02709e-06
1.19645e-06
-4.53443e-07
2.15793e-06
-1.52565e-06
5.46874e-06
-2.93481e-06
7.6432e-06
-4.45e-06
8.73093e-06
-5.90616e-06
8.88308e-06
-7.1976e-06
8.27971e-06
-8.2634e-06
7.09464e-06
-9.07177e-06
5.47979e-06
-9.60655e-06
3.56187e-06
1.44716e-06
-5.28357e-07
2.68628e-06
-1.73973e-06
6.68011e-06
-3.27809e-06
9.18157e-06
-4.8718e-06
1.03246e-05
-6.34724e-06
1.03585e-05
-7.61109e-06
9.54356e-06
-8.62465e-06
8.1082e-06
-9.37999e-06
6.23513e-06
-9.8813e-06
4.06317e-06
1.69769e-06
-6.23718e-07
3.31e-06
-1.98755e-06
8.04394e-06
-3.63221e-06
1.08262e-05
-5.24238e-06
1.19348e-05
-6.64817e-06
1.17643e-05
-7.7852e-06
1.06806e-05
-8.65184e-06
8.97484e-06
-9.2752e-06
6.8585e-06
-9.68747e-06
4.47543e-06
1.92096e-06
-7.54153e-07
4.06415e-06
-2.28459e-06
9.57438e-06
-3.98747e-06
1.25291e-05
-5.50978e-06
1.34571e-05
-6.71052e-06
1.2965e-05
-7.57968e-06
1.15498e-05
-8.17134e-06
9.5665e-06
-8.55904e-06
7.24619e-06
-8.8092e-06
4.7256e-06
2.07829e-06
-9.45298e-07
5.00945e-06
-2.64878e-06
1.12779e-05
-4.31154e-06
1.41919e-05
-5.57413e-06
1.47197e-05
-6.37179e-06
1.37627e-05
-6.78464e-06
1.19626e-05
-6.94207e-06
9.72393e-06
-6.97146e-06
7.27558e-06
-6.97459e-06
4.72874e-06
2.12203e-06
-1.23741e-06
6.24686e-06
-3.08359e-06
1.3124e-05
-4.50828e-06
1.56166e-05
-5.23536e-06
1.54468e-05
-5.3564e-06
1.38837e-05
-5.08329e-06
1.16895e-05
-4.6326e-06
9.27324e-06
-4.18114e-06
6.82412e-06
-3.85635e-06
4.40394e-06
2.00472e-06
-1.67389e-06
7.92075e-06
-3.51364e-06
1.49638e-05
-4.31583e-06
1.64187e-05
-4.08969e-06
1.52206e-05
-3.19417e-06
1.29882e-05
-2.00015e-06
1.04955e-05
-7.9681e-07
8.06989e-06
2.17472e-07
5.80984e-06
9.16242e-07
3.70517e-06
1.69739e-06
-2.23075e-06
1.01515e-05
-3.5905e-06
1.63236e-05
-3.0782e-06
1.59064e-05
-1.34455e-06
1.3487e-05
8.96082e-07
1.07476e-05
3.15374e-06
8.23782e-06
5.13665e-06
6.08699e-06
6.68703e-06
4.25946e-06
7.72405e-06
2.66816e-06
1.21672e-06
-2.57384e-06
1.27253e-05
-2.18358e-06
1.59333e-05
7.17796e-07
1.30051e-05
4.46909e-06
9.7357e-06
8.13259e-06
7.08409e-06
1.13006e-05
5.06976e-06
1.3828e-05
3.55968e-06
1.56868e-05
2.40062e-06
1.68903e-05
1.46469e-06
6.53561e-07
-7.85011e-07
1.35103e-05
4.08076e-06
1.10675e-05
1.02974e-05
6.7884e-06
1.57934e-05
4.23975e-06
2.01576e-05
2.71985e-06
2.34575e-05
1.76988e-06
2.58601e-05
1.15708e-06
2.75207e-05
7.40007e-07
2.85532e-05
4.32265e-07
1.81212e-07
1.35103e-05
2.45779e-05
3.13663e-05
3.5606e-05
3.83259e-05
4.00957e-05
4.12528e-05
4.19928e-05
4.24251e-05
)
;

boundaryField
{
    movingWall
    {
        type            calculated;
        value           uniform 0;
    }
    fixedWalls
    {
        type            calculated;
        value           uniform 0;
    }
    frontAndBack
    {
        type            empty;
        value           nonuniform 0();
    }
    procBoundary0to1
    {
        type            processor;
        value           nonuniform List<scalar> 
20
(
-8.85317e-07
-2.30514e-06
-3.51708e-06
-4.61009e-06
-5.63645e-06
-6.62397e-06
-7.57674e-06
-8.4731e-06
-9.26193e-06
-9.85725e-06
-1.01318e-05
-9.91074e-06
-8.96653e-06
-7.01833e-06
-3.73904e-06
1.22357e-06
8.20472e-06
1.74534e-05
2.90255e-05
4.26063e-05
)
;
    }
}


// ************************************************************************* //
