/*--------------------------------*- C++ -*----------------------------------*\
| =========                 |                                                 |
| \\      /  F ield         | OpenFOAM: The Open Source CFD Toolbox           |
|  \\    /   O peration     | Version:  v1712                                 |
|   \\  /    A nd           | Web:      www.OpenFOAM.com                      |
|    \\/     M anipulation  |                                                 |
\*---------------------------------------------------------------------------*/
FoamFile
{
    version     2.0;
    format      ascii;
    class       volVectorField;
    location    "0.2";
    object      U;
}
// * * * * * * * * * * * * * * * * * * * * * * * * * * * * * * * * * * * * * //

dimensions      [0 1 -1 0 0 0 0];


internalField   nonuniform List<vector> 
200
(
(0.000253309 -0.000250228 0)
(0.000141018 0.000111503 0)
(-0.00117669 0.000564436 0)
(-0.00347997 0.000884677 0)
(-0.00637523 0.00104534 0)
(-0.00946605 0.00106137 0)
(-0.0123984 0.000957511 0)
(-0.0148795 0.000760179 0)
(-0.0166835 0.000494488 0)
(-0.0176519 0.000184521 0)
(-7.7381e-05 -0.000169211 0)
(-0.00161084 0.00164433 0)
(-0.00569055 0.00361595 0)
(-0.0117141 0.00503291 0)
(-0.0188847 0.00574105 0)
(-0.0263902 0.00575804 0)
(-0.0334559 0.00516976 0)
(-0.0394113 0.00409104 0)
(-0.0437269 0.00264675 0)
(-0.0460294 0.000966697 0)
(-0.000528325 0.00109119 0)
(-0.0037097 0.00573398 0)
(-0.0105843 0.0102204 0)
(-0.0199833 0.0134023 0)
(-0.0307521 0.0149404 0)
(-0.0418051 0.014833 0)
(-0.0520987 0.0132506 0)
(-0.0607198 0.0104523 0)
(-0.0669428 0.00673966 0)
(-0.070255 0.00243826 0)
(-0.000927746 0.00347825 0)
(-0.00568894 0.0122155 0)
(-0.0152953 0.0199135 0)
(-0.0279054 0.0251877 0)
(-0.0419686 0.027586 0)
(-0.0561568 0.0271268 0)
(-0.069225 0.0240996 0)
(-0.0800946 0.0189468 0)
(-0.0879144 0.0121913 0)
(-0.0920838 0.00440399 0)
(-0.00127832 0.00687468 0)
(-0.00753295 0.0209449 0)
(-0.0197972 0.0324972 0)
(-0.0355216 0.0400872 0)
(-0.0527242 0.0432733 0)
(-0.0698335 0.0421764 0)
(-0.085433 0.0372633 0)
(-0.0983259 0.0292022 0)
(-0.107582 0.0187707 0)
(-0.112549 0.0068121 0)
(-0.00160687 0.0112107 0)
(-0.00931475 0.0318616 0)
(-0.0242013 0.047933 0)
(-0.0429889 0.0580496 0)
(-0.0632372 0.0619135 0)
(-0.0831272 0.0598586 0)
(-0.101093 0.0526087 0)
(-0.115857 0.041111 0)
(-0.12645 0.0264282 0)
(-0.132198 0.00969067 0)
(-0.00193943 0.0164703 0)
(-0.0111181 0.044957 0)
(-0.0286428 0.0662088 0)
(-0.0504669 0.0790306 0)
(-0.0736663 0.0834161 0)
(-0.0961796 0.0800454 0)
(-0.116323 0.0699995 0)
(-0.132781 0.054566 0)
(-0.144595 0.0351205 0)
(-0.151104 0.0130819 0)
(-0.00229952 0.0226865 0)
(-0.0130225 0.0602798 0)
(-0.0332446 0.087334 0)
(-0.058069 0.102962 0)
(-0.0840593 0.107629 0)
(-0.108934 0.102527 0)
(-0.130944 0.0892147 0)
(-0.148807 0.0693885 0)
(-0.161637 0.0447583 0)
(-0.168837 0.0170164 0)
(-0.00271131 0.0299372 0)
(-0.0151063 0.0779326 0)
(-0.0381106 0.111322 0)
(-0.0658413 0.129711 0)
(-0.0943166 0.134277 0)
(-0.121086 0.126935 0)
(-0.144428 0.109869 0)
(-0.163195 0.0852567 0)
(-0.176667 0.0551521 0)
(-0.184386 0.021483 0)
(-0.00320757 0.0383491 0)
(-0.0174657 0.0980637 0)
(-0.0433398 0.138153 0)
(-0.0737544 0.159004 0)
(-0.104157 0.162858 0)
(-0.132027 0.152632 0)
(-0.15582 0.131306 0)
(-0.174672 0.101613 0)
(-0.188161 0.0659415 0)
(-0.19606 0.0263851 0)
(-0.00384413 0.0481182 0)
(-0.020247 0.120868 0)
(-0.0490485 0.167716 0)
(-0.0816895 0.190324 0)
(-0.113057 0.192514 0)
(-0.140751 0.178574 0)
(-0.163627 0.152477 0)
(-0.181315 0.117566 0)
(-0.193853 0.0765184 0)
(-0.201367 0.0314896 0)
(-0.0047258 0.0595614 0)
(-0.0236967 0.146593 0)
(-0.0553878 0.199722 0)
(-0.0893844 0.222751 0)
(-0.120133 0.22185 0)
(-0.14569 0.203148 0)
(-0.165647 0.171806 0)
(-0.180389 0.131784 0)
(-0.190601 0.0859538 0)
(-0.196883 0.0363716 0)
(-0.00605221 0.07322 0)
(-0.0282289 0.175542 0)
(-0.0625159 0.233541 0)
(-0.096269 0.254711 0)
(-0.123874 0.248694 0)
(-0.144419 0.22399 0)
(-0.158696 0.187076 0)
(-0.168136 0.142438 0)
(-0.174232 0.0929537 0)
(-0.17815 0.0403742 0)
(-0.00819281 0.0900398 0)
(-0.0344864 0.208003 0)
(-0.0704209 0.267859 0)
(-0.101038 0.283576 0)
(-0.121595 0.269779 0)
(-0.133134 0.23781 0)
(-0.138194 0.195377 0)
(-0.139498 0.147212 0)
(-0.139405 0.0958957 0)
(-0.139634 0.0426148 0)
(-0.0117682 0.111631 0)
(-0.0432634 0.243949 0)
(-0.0783062 0.300015 0)
(-0.100643 0.305069 0)
(-0.108373 0.280435 0)
(-0.105759 0.240357 0)
(-0.0975625 0.193259 0)
(-0.0878084 0.143531 0)
(-0.0795416 0.0930245 0)
(-0.0748275 0.0420907 0)
(-0.0175499 0.140657 0)
(-0.0547678 0.282137 0)
(-0.0827943 0.324705 0)
(-0.0880943 0.312457 0)
(-0.0751286 0.274437 0)
(-0.0526173 0.226752 0)
(-0.0274905 0.177271 0)
(-0.00455133 0.129122 0)
(0.0130587 0.082904 0)
(0.023398 0.0379434 0)
(-0.0254501 0.18171 0)
(-0.0657769 0.317767 0)
(-0.0733392 0.331354 0)
(-0.0480882 0.29539 0)
(-0.00559499 0.244199 0)
(0.041196 0.192368 0)
(0.0846252 0.145036 0)
(0.120504 0.102963 0)
(0.146666 0.0651319 0)
(0.16201 0.029889 0)
(-0.0296491 0.239176 0)
(-0.0608425 0.335766 0)
(-0.0219462 0.300499 0)
(0.0505344 0.240122 0)
(0.12756 0.182942 0)
(0.196991 0.135382 0)
(0.254315 0.0973927 0)
(0.298225 0.0668461 0)
(0.328796 0.041352 0)
(0.346437 0.0187772 0)
(0.00808323 0.281862 0)
(0.0197829 0.294972 0)
(0.139065 0.210971 0)
(0.264456 0.143475 0)
(0.364361 0.0971834 0)
(0.440354 0.0657748 0)
(0.496729 0.0442351 0)
(0.536858 0.0288841 0)
(0.563428 0.0171977 0)
(0.578286 0.00748436 0)
(0.299604 0.146091 0)
(0.396272 0.127503 0)
(0.55742 0.0760894 0)
(0.674487 0.0437229 0)
(0.743887 0.0255716 0)
(0.78715 0.0152417 0)
(0.815481 0.00921192 0)
(0.833949 0.00550911 0)
(0.845379 0.00302701 0)
(0.851364 0.00114932 0)
)
;

boundaryField
{
    movingWall
    {
        type            fixedValue;
        value           uniform (1 0 0);
    }
    fixedWalls
    {
        type            noSlip;
    }
    frontAndBack
    {
        type            empty;
    }
    procBoundary0to1
    {
        type            processor;
        value           nonuniform List<vector> 
20
(
(-0.0176958 -0.000145205 0)
(-0.0461118 -0.000812803 0)
(-0.0703732 -0.00210538 0)
(-0.0922687 -0.00380583 0)
(-0.112859 -0.00577709 0)
(-0.13271 -0.00791179 0)
(-0.151912 -0.0100808 0)
(-0.170032 -0.0121269 0)
(-0.186037 -0.0138674 0)
(-0.198178 -0.0151051 0)
(-0.203863 -0.0156515 0)
(-0.199521 -0.015364 0)
(-0.180516 -0.0141929 0)
(-0.141148 -0.0122287 0)
(-0.074845 -0.00972576 0)
(0.0253566 -0.00707154 0)
(0.165903 -0.0046704 0)
(0.351346 -0.0027935 0)
(0.582361 -0.0014938 0)
(0.852659 -0.000499291 0)
)
;
    }
}


// ************************************************************************* //
